V -t * -v 1.0a5 -a 0
A -t * -n 1 -p 0 -o 0x7fffffff -c 30 -a 1
A -t * -h 1 -m 1073741823 -s 0
c -t * -i 1 -n Red
n -t * -a 0 -s 0 -S UP -v circle -c black -i black
n -t * -a 1 -s 1 -S UP -v circle -c black -i black
n -t * -a 2 -s 2 -S UP -v circle -c black -i black
l -t * -s 0 -d 1 -S UP -r 2000000 -D 0.01 -c black -o right
l -t * -s 1 -d 2 -S UP -r 2000000 -D 0.01 -c black -o right
+ -t 0.5 -s 0 -d 1 -p tcp -e 40 -c 1 -i 0 -a 1 -x {0.0 2.0 0 ------- null}
- -t 0.5 -s 0 -d 1 -p tcp -e 40 -c 1 -i 0 -a 1 -x {0.0 2.0 0 ------- null}
h -t 0.5 -s 0 -d 1 -p tcp -e 40 -c 1 -i 0 -a 1 -x {0.0 2.0 -1 ------- null}
r -t 0.51016 -s 0 -d 1 -p tcp -e 40 -c 1 -i 0 -a 1 -x {0.0 2.0 0 ------- null}
+ -t 0.51016 -s 1 -d 2 -p tcp -e 40 -c 1 -i 0 -a 1 -x {0.0 2.0 0 ------- null}
- -t 0.51016 -s 1 -d 2 -p tcp -e 40 -c 1 -i 0 -a 1 -x {0.0 2.0 0 ------- null}
h -t 0.51016 -s 1 -d 2 -p tcp -e 40 -c 1 -i 0 -a 1 -x {0.0 2.0 -1 ------- null}
r -t 0.52032 -s 1 -d 2 -p tcp -e 40 -c 1 -i 0 -a 1 -x {0.0 2.0 0 ------- null}
+ -t 0.52032 -s 2 -d 1 -p ack -e 40 -c 1 -i 1 -a 1 -x {2.0 0.0 0 ------- null}
- -t 0.52032 -s 2 -d 1 -p ack -e 40 -c 1 -i 1 -a 1 -x {2.0 0.0 0 ------- null}
h -t 0.52032 -s 2 -d 1 -p ack -e 40 -c 1 -i 1 -a 1 -x {2.0 0.0 -1 ------- null}
r -t 0.53048 -s 2 -d 1 -p ack -e 40 -c 1 -i 1 -a 1 -x {2.0 0.0 0 ------- null}
+ -t 0.53048 -s 1 -d 0 -p ack -e 40 -c 1 -i 1 -a 1 -x {2.0 0.0 0 ------- null}
- -t 0.53048 -s 1 -d 0 -p ack -e 40 -c 1 -i 1 -a 1 -x {2.0 0.0 0 ------- null}
h -t 0.53048 -s 1 -d 0 -p ack -e 40 -c 1 -i 1 -a 1 -x {2.0 0.0 -1 ------- null}
r -t 0.54064 -s 1 -d 0 -p ack -e 40 -c 1 -i 1 -a 1 -x {2.0 0.0 0 ------- null}
+ -t 0.54064 -s 0 -d 1 -p tcp -e 552 -c 1 -i 2 -a 1 -x {0.0 2.0 1 ------- null}
- -t 0.54064 -s 0 -d 1 -p tcp -e 552 -c 1 -i 2 -a 1 -x {0.0 2.0 1 ------- null}
h -t 0.54064 -s 0 -d 1 -p tcp -e 552 -c 1 -i 2 -a 1 -x {0.0 2.0 -1 ------- null}
+ -t 0.54064 -s 0 -d 1 -p tcp -e 552 -c 1 -i 3 -a 1 -x {0.0 2.0 2 ------- null}
- -t 0.542848 -s 0 -d 1 -p tcp -e 552 -c 1 -i 3 -a 1 -x {0.0 2.0 2 ------- null}
h -t 0.542848 -s 0 -d 1 -p tcp -e 552 -c 1 -i 3 -a 1 -x {0.0 2.0 -1 ------- null}
r -t 0.552848 -s 0 -d 1 -p tcp -e 552 -c 1 -i 2 -a 1 -x {0.0 2.0 1 ------- null}
+ -t 0.552848 -s 1 -d 2 -p tcp -e 552 -c 1 -i 2 -a 1 -x {0.0 2.0 1 ------- null}
- -t 0.552848 -s 1 -d 2 -p tcp -e 552 -c 1 -i 2 -a 1 -x {0.0 2.0 1 ------- null}
h -t 0.552848 -s 1 -d 2 -p tcp -e 552 -c 1 -i 2 -a 1 -x {0.0 2.0 -1 ------- null}
r -t 0.555056 -s 0 -d 1 -p tcp -e 552 -c 1 -i 3 -a 1 -x {0.0 2.0 2 ------- null}
+ -t 0.555056 -s 1 -d 2 -p tcp -e 552 -c 1 -i 3 -a 1 -x {0.0 2.0 2 ------- null}
- -t 0.555056 -s 1 -d 2 -p tcp -e 552 -c 1 -i 3 -a 1 -x {0.0 2.0 2 ------- null}
h -t 0.555056 -s 1 -d 2 -p tcp -e 552 -c 1 -i 3 -a 1 -x {0.0 2.0 -1 ------- null}
r -t 0.565056 -s 1 -d 2 -p tcp -e 552 -c 1 -i 2 -a 1 -x {0.0 2.0 1 ------- null}
r -t 0.567264 -s 1 -d 2 -p tcp -e 552 -c 1 -i 3 -a 1 -x {0.0 2.0 2 ------- null}
+ -t 0.567264 -s 2 -d 1 -p ack -e 40 -c 1 -i 4 -a 1 -x {2.0 0.0 2 ------- null}
- -t 0.567264 -s 2 -d 1 -p ack -e 40 -c 1 -i 4 -a 1 -x {2.0 0.0 2 ------- null}
h -t 0.567264 -s 2 -d 1 -p ack -e 40 -c 1 -i 4 -a 1 -x {2.0 0.0 -1 ------- null}
r -t 0.577424 -s 2 -d 1 -p ack -e 40 -c 1 -i 4 -a 1 -x {2.0 0.0 2 ------- null}
+ -t 0.577424 -s 1 -d 0 -p ack -e 40 -c 1 -i 4 -a 1 -x {2.0 0.0 2 ------- null}
- -t 0.577424 -s 1 -d 0 -p ack -e 40 -c 1 -i 4 -a 1 -x {2.0 0.0 2 ------- null}
h -t 0.577424 -s 1 -d 0 -p ack -e 40 -c 1 -i 4 -a 1 -x {2.0 0.0 -1 ------- null}
r -t 0.587584 -s 1 -d 0 -p ack -e 40 -c 1 -i 4 -a 1 -x {2.0 0.0 2 ------- null}
+ -t 0.587584 -s 0 -d 1 -p tcp -e 552 -c 1 -i 5 -a 1 -x {0.0 2.0 3 ------- null}
- -t 0.587584 -s 0 -d 1 -p tcp -e 552 -c 1 -i 5 -a 1 -x {0.0 2.0 3 ------- null}
h -t 0.587584 -s 0 -d 1 -p tcp -e 552 -c 1 -i 5 -a 1 -x {0.0 2.0 -1 ------- null}
+ -t 0.587584 -s 0 -d 1 -p tcp -e 552 -c 1 -i 6 -a 1 -x {0.0 2.0 4 ------- null}
+ -t 0.587584 -s 0 -d 1 -p tcp -e 552 -c 1 -i 7 -a 1 -x {0.0 2.0 5 ------- null}
- -t 0.589792 -s 0 -d 1 -p tcp -e 552 -c 1 -i 6 -a 1 -x {0.0 2.0 4 ------- null}
h -t 0.589792 -s 0 -d 1 -p tcp -e 552 -c 1 -i 6 -a 1 -x {0.0 2.0 -1 ------- null}
- -t 0.592 -s 0 -d 1 -p tcp -e 552 -c 1 -i 7 -a 1 -x {0.0 2.0 5 ------- null}
h -t 0.592 -s 0 -d 1 -p tcp -e 552 -c 1 -i 7 -a 1 -x {0.0 2.0 -1 ------- null}
r -t 0.599792 -s 0 -d 1 -p tcp -e 552 -c 1 -i 5 -a 1 -x {0.0 2.0 3 ------- null}
+ -t 0.599792 -s 1 -d 2 -p tcp -e 552 -c 1 -i 5 -a 1 -x {0.0 2.0 3 ------- null}
- -t 0.599792 -s 1 -d 2 -p tcp -e 552 -c 1 -i 5 -a 1 -x {0.0 2.0 3 ------- null}
h -t 0.599792 -s 1 -d 2 -p tcp -e 552 -c 1 -i 5 -a 1 -x {0.0 2.0 -1 ------- null}
r -t 0.602 -s 0 -d 1 -p tcp -e 552 -c 1 -i 6 -a 1 -x {0.0 2.0 4 ------- null}
+ -t 0.602 -s 1 -d 2 -p tcp -e 552 -c 1 -i 6 -a 1 -x {0.0 2.0 4 ------- null}
- -t 0.602 -s 1 -d 2 -p tcp -e 552 -c 1 -i 6 -a 1 -x {0.0 2.0 4 ------- null}
h -t 0.602 -s 1 -d 2 -p tcp -e 552 -c 1 -i 6 -a 1 -x {0.0 2.0 -1 ------- null}
r -t 0.604208 -s 0 -d 1 -p tcp -e 552 -c 1 -i 7 -a 1 -x {0.0 2.0 5 ------- null}
+ -t 0.604208 -s 1 -d 2 -p tcp -e 552 -c 1 -i 7 -a 1 -x {0.0 2.0 5 ------- null}
- -t 0.604208 -s 1 -d 2 -p tcp -e 552 -c 1 -i 7 -a 1 -x {0.0 2.0 5 ------- null}
h -t 0.604208 -s 1 -d 2 -p tcp -e 552 -c 1 -i 7 -a 1 -x {0.0 2.0 -1 ------- null}
r -t 0.612 -s 1 -d 2 -p tcp -e 552 -c 1 -i 5 -a 1 -x {0.0 2.0 3 ------- null}
r -t 0.614208 -s 1 -d 2 -p tcp -e 552 -c 1 -i 6 -a 1 -x {0.0 2.0 4 ------- null}
+ -t 0.614208 -s 2 -d 1 -p ack -e 40 -c 1 -i 8 -a 1 -x {2.0 0.0 4 ------- null}
- -t 0.614208 -s 2 -d 1 -p ack -e 40 -c 1 -i 8 -a 1 -x {2.0 0.0 4 ------- null}
h -t 0.614208 -s 2 -d 1 -p ack -e 40 -c 1 -i 8 -a 1 -x {2.0 0.0 -1 ------- null}
r -t 0.616416 -s 1 -d 2 -p tcp -e 552 -c 1 -i 7 -a 1 -x {0.0 2.0 5 ------- null}
r -t 0.624368 -s 2 -d 1 -p ack -e 40 -c 1 -i 8 -a 1 -x {2.0 0.0 4 ------- null}
+ -t 0.624368 -s 1 -d 0 -p ack -e 40 -c 1 -i 8 -a 1 -x {2.0 0.0 4 ------- null}
- -t 0.624368 -s 1 -d 0 -p ack -e 40 -c 1 -i 8 -a 1 -x {2.0 0.0 4 ------- null}
h -t 0.624368 -s 1 -d 0 -p ack -e 40 -c 1 -i 8 -a 1 -x {2.0 0.0 -1 ------- null}
r -t 0.634528 -s 1 -d 0 -p ack -e 40 -c 1 -i 8 -a 1 -x {2.0 0.0 4 ------- null}
+ -t 0.634528 -s 0 -d 1 -p tcp -e 552 -c 1 -i 9 -a 1 -x {0.0 2.0 6 ------- null}
- -t 0.634528 -s 0 -d 1 -p tcp -e 552 -c 1 -i 9 -a 1 -x {0.0 2.0 6 ------- null}
h -t 0.634528 -s 0 -d 1 -p tcp -e 552 -c 1 -i 9 -a 1 -x {0.0 2.0 -1 ------- null}
+ -t 0.634528 -s 0 -d 1 -p tcp -e 552 -c 1 -i 10 -a 1 -x {0.0 2.0 7 ------- null}
+ -t 0.634528 -s 0 -d 1 -p tcp -e 552 -c 1 -i 11 -a 1 -x {0.0 2.0 8 ------- null}
- -t 0.636736 -s 0 -d 1 -p tcp -e 552 -c 1 -i 10 -a 1 -x {0.0 2.0 7 ------- null}
h -t 0.636736 -s 0 -d 1 -p tcp -e 552 -c 1 -i 10 -a 1 -x {0.0 2.0 -1 ------- null}
- -t 0.638944 -s 0 -d 1 -p tcp -e 552 -c 1 -i 11 -a 1 -x {0.0 2.0 8 ------- null}
h -t 0.638944 -s 0 -d 1 -p tcp -e 552 -c 1 -i 11 -a 1 -x {0.0 2.0 -1 ------- null}
r -t 0.646736 -s 0 -d 1 -p tcp -e 552 -c 1 -i 9 -a 1 -x {0.0 2.0 6 ------- null}
+ -t 0.646736 -s 1 -d 2 -p tcp -e 552 -c 1 -i 9 -a 1 -x {0.0 2.0 6 ------- null}
- -t 0.646736 -s 1 -d 2 -p tcp -e 552 -c 1 -i 9 -a 1 -x {0.0 2.0 6 ------- null}
h -t 0.646736 -s 1 -d 2 -p tcp -e 552 -c 1 -i 9 -a 1 -x {0.0 2.0 -1 ------- null}
r -t 0.648944 -s 0 -d 1 -p tcp -e 552 -c 1 -i 10 -a 1 -x {0.0 2.0 7 ------- null}
+ -t 0.648944 -s 1 -d 2 -p tcp -e 552 -c 1 -i 10 -a 1 -x {0.0 2.0 7 ------- null}
- -t 0.648944 -s 1 -d 2 -p tcp -e 552 -c 1 -i 10 -a 1 -x {0.0 2.0 7 ------- null}
h -t 0.648944 -s 1 -d 2 -p tcp -e 552 -c 1 -i 10 -a 1 -x {0.0 2.0 -1 ------- null}
r -t 0.651152 -s 0 -d 1 -p tcp -e 552 -c 1 -i 11 -a 1 -x {0.0 2.0 8 ------- null}
+ -t 0.651152 -s 1 -d 2 -p tcp -e 552 -c 1 -i 11 -a 1 -x {0.0 2.0 8 ------- null}
- -t 0.651152 -s 1 -d 2 -p tcp -e 552 -c 1 -i 11 -a 1 -x {0.0 2.0 8 ------- null}
h -t 0.651152 -s 1 -d 2 -p tcp -e 552 -c 1 -i 11 -a 1 -x {0.0 2.0 -1 ------- null}
r -t 0.658944 -s 1 -d 2 -p tcp -e 552 -c 1 -i 9 -a 1 -x {0.0 2.0 6 ------- null}
+ -t 0.658944 -s 2 -d 1 -p ack -e 40 -c 1 -i 12 -a 1 -x {2.0 0.0 6 ------- null}
- -t 0.658944 -s 2 -d 1 -p ack -e 40 -c 1 -i 12 -a 1 -x {2.0 0.0 6 ------- null}
h -t 0.658944 -s 2 -d 1 -p ack -e 40 -c 1 -i 12 -a 1 -x {2.0 0.0 -1 ------- null}
r -t 0.661152 -s 1 -d 2 -p tcp -e 552 -c 1 -i 10 -a 1 -x {0.0 2.0 7 ------- null}
r -t 0.66336 -s 1 -d 2 -p tcp -e 552 -c 1 -i 11 -a 1 -x {0.0 2.0 8 ------- null}
+ -t 0.66336 -s 2 -d 1 -p ack -e 40 -c 1 -i 13 -a 1 -x {2.0 0.0 8 ------- null}
- -t 0.66336 -s 2 -d 1 -p ack -e 40 -c 1 -i 13 -a 1 -x {2.0 0.0 8 ------- null}
h -t 0.66336 -s 2 -d 1 -p ack -e 40 -c 1 -i 13 -a 1 -x {2.0 0.0 -1 ------- null}
r -t 0.669103999999999 -s 2 -d 1 -p ack -e 40 -c 1 -i 12 -a 1 -x {2.0 0.0 6 ------- null}
+ -t 0.669103999999999 -s 1 -d 0 -p ack -e 40 -c 1 -i 12 -a 1 -x {2.0 0.0 6 ------- null}
- -t 0.669103999999999 -s 1 -d 0 -p ack -e 40 -c 1 -i 12 -a 1 -x {2.0 0.0 6 ------- null}
h -t 0.669103999999999 -s 1 -d 0 -p ack -e 40 -c 1 -i 12 -a 1 -x {2.0 0.0 -1 ------- null}
r -t 0.673519999999999 -s 2 -d 1 -p ack -e 40 -c 1 -i 13 -a 1 -x {2.0 0.0 8 ------- null}
+ -t 0.673519999999999 -s 1 -d 0 -p ack -e 40 -c 1 -i 13 -a 1 -x {2.0 0.0 8 ------- null}
- -t 0.673519999999999 -s 1 -d 0 -p ack -e 40 -c 1 -i 13 -a 1 -x {2.0 0.0 8 ------- null}
h -t 0.673519999999999 -s 1 -d 0 -p ack -e 40 -c 1 -i 13 -a 1 -x {2.0 0.0 -1 ------- null}
r -t 0.679263999999999 -s 1 -d 0 -p ack -e 40 -c 1 -i 12 -a 1 -x {2.0 0.0 6 ------- null}
+ -t 0.679263999999999 -s 0 -d 1 -p tcp -e 552 -c 1 -i 14 -a 1 -x {0.0 2.0 9 ------- null}
- -t 0.679263999999999 -s 0 -d 1 -p tcp -e 552 -c 1 -i 14 -a 1 -x {0.0 2.0 9 ------- null}
h -t 0.679263999999999 -s 0 -d 1 -p tcp -e 552 -c 1 -i 14 -a 1 -x {0.0 2.0 -1 ------- null}
+ -t 0.679263999999999 -s 0 -d 1 -p tcp -e 552 -c 1 -i 15 -a 1 -x {0.0 2.0 10 ------- null}
+ -t 0.679263999999999 -s 0 -d 1 -p tcp -e 552 -c 1 -i 16 -a 1 -x {0.0 2.0 11 ------- null}
- -t 0.681471999999999 -s 0 -d 1 -p tcp -e 552 -c 1 -i 15 -a 1 -x {0.0 2.0 10 ------- null}
h -t 0.681471999999999 -s 0 -d 1 -p tcp -e 552 -c 1 -i 15 -a 1 -x {0.0 2.0 -1 ------- null}
r -t 0.683679999999999 -s 1 -d 0 -p ack -e 40 -c 1 -i 13 -a 1 -x {2.0 0.0 8 ------- null}
+ -t 0.683679999999999 -s 0 -d 1 -p tcp -e 552 -c 1 -i 17 -a 1 -x {0.0 2.0 12 ------- null}
+ -t 0.683679999999999 -s 0 -d 1 -p tcp -e 552 -c 1 -i 18 -a 1 -x {0.0 2.0 13 ------- null}
+ -t 0.683679999999999 -s 0 -d 1 -p tcp -e 552 -c 1 -i 19 -a 1 -x {0.0 2.0 14 ------- null}
- -t 0.683679999999999 -s 0 -d 1 -p tcp -e 552 -c 1 -i 16 -a 1 -x {0.0 2.0 11 ------- null}
h -t 0.683679999999999 -s 0 -d 1 -p tcp -e 552 -c 1 -i 16 -a 1 -x {0.0 2.0 -1 ------- null}
- -t 0.685887999999999 -s 0 -d 1 -p tcp -e 552 -c 1 -i 17 -a 1 -x {0.0 2.0 12 ------- null}
h -t 0.685887999999999 -s 0 -d 1 -p tcp -e 552 -c 1 -i 17 -a 1 -x {0.0 2.0 -1 ------- null}
- -t 0.688095999999999 -s 0 -d 1 -p tcp -e 552 -c 1 -i 18 -a 1 -x {0.0 2.0 13 ------- null}
h -t 0.688095999999999 -s 0 -d 1 -p tcp -e 552 -c 1 -i 18 -a 1 -x {0.0 2.0 -1 ------- null}
- -t 0.690303999999999 -s 0 -d 1 -p tcp -e 552 -c 1 -i 19 -a 1 -x {0.0 2.0 14 ------- null}
h -t 0.690303999999999 -s 0 -d 1 -p tcp -e 552 -c 1 -i 19 -a 1 -x {0.0 2.0 -1 ------- null}
r -t 0.691471999999999 -s 0 -d 1 -p tcp -e 552 -c 1 -i 14 -a 1 -x {0.0 2.0 9 ------- null}
+ -t 0.691471999999999 -s 1 -d 2 -p tcp -e 552 -c 1 -i 14 -a 1 -x {0.0 2.0 9 ------- null}
- -t 0.691471999999999 -s 1 -d 2 -p tcp -e 552 -c 1 -i 14 -a 1 -x {0.0 2.0 9 ------- null}
h -t 0.691471999999999 -s 1 -d 2 -p tcp -e 552 -c 1 -i 14 -a 1 -x {0.0 2.0 -1 ------- null}
r -t 0.693679999999999 -s 0 -d 1 -p tcp -e 552 -c 1 -i 15 -a 1 -x {0.0 2.0 10 ------- null}
+ -t 0.693679999999999 -s 1 -d 2 -p tcp -e 552 -c 1 -i 15 -a 1 -x {0.0 2.0 10 ------- null}
- -t 0.693679999999999 -s 1 -d 2 -p tcp -e 552 -c 1 -i 15 -a 1 -x {0.0 2.0 10 ------- null}
h -t 0.693679999999999 -s 1 -d 2 -p tcp -e 552 -c 1 -i 15 -a 1 -x {0.0 2.0 -1 ------- null}
r -t 0.695887999999999 -s 0 -d 1 -p tcp -e 552 -c 1 -i 16 -a 1 -x {0.0 2.0 11 ------- null}
+ -t 0.695887999999999 -s 1 -d 2 -p tcp -e 552 -c 1 -i 16 -a 1 -x {0.0 2.0 11 ------- null}
- -t 0.695887999999999 -s 1 -d 2 -p tcp -e 552 -c 1 -i 16 -a 1 -x {0.0 2.0 11 ------- null}
h -t 0.695887999999999 -s 1 -d 2 -p tcp -e 552 -c 1 -i 16 -a 1 -x {0.0 2.0 -1 ------- null}
r -t 0.698095999999999 -s 0 -d 1 -p tcp -e 552 -c 1 -i 17 -a 1 -x {0.0 2.0 12 ------- null}
+ -t 0.698095999999999 -s 1 -d 2 -p tcp -e 552 -c 1 -i 17 -a 1 -x {0.0 2.0 12 ------- null}
- -t 0.698095999999999 -s 1 -d 2 -p tcp -e 552 -c 1 -i 17 -a 1 -x {0.0 2.0 12 ------- null}
h -t 0.698095999999999 -s 1 -d 2 -p tcp -e 552 -c 1 -i 17 -a 1 -x {0.0 2.0 -1 ------- null}
r -t 0.700303999999999 -s 0 -d 1 -p tcp -e 552 -c 1 -i 18 -a 1 -x {0.0 2.0 13 ------- null}
+ -t 0.700303999999999 -s 1 -d 2 -p tcp -e 552 -c 1 -i 18 -a 1 -x {0.0 2.0 13 ------- null}
- -t 0.700303999999999 -s 1 -d 2 -p tcp -e 552 -c 1 -i 18 -a 1 -x {0.0 2.0 13 ------- null}
h -t 0.700303999999999 -s 1 -d 2 -p tcp -e 552 -c 1 -i 18 -a 1 -x {0.0 2.0 -1 ------- null}
r -t 0.702511999999999 -s 0 -d 1 -p tcp -e 552 -c 1 -i 19 -a 1 -x {0.0 2.0 14 ------- null}
+ -t 0.702511999999999 -s 1 -d 2 -p tcp -e 552 -c 1 -i 19 -a 1 -x {0.0 2.0 14 ------- null}
- -t 0.702511999999999 -s 1 -d 2 -p tcp -e 552 -c 1 -i 19 -a 1 -x {0.0 2.0 14 ------- null}
h -t 0.702511999999999 -s 1 -d 2 -p tcp -e 552 -c 1 -i 19 -a 1 -x {0.0 2.0 -1 ------- null}
r -t 0.703679999999999 -s 1 -d 2 -p tcp -e 552 -c 1 -i 14 -a 1 -x {0.0 2.0 9 ------- null}
r -t 0.705887999999999 -s 1 -d 2 -p tcp -e 552 -c 1 -i 15 -a 1 -x {0.0 2.0 10 ------- null}
+ -t 0.705887999999999 -s 2 -d 1 -p ack -e 40 -c 1 -i 20 -a 1 -x {2.0 0.0 10 ------- null}
- -t 0.705887999999999 -s 2 -d 1 -p ack -e 40 -c 1 -i 20 -a 1 -x {2.0 0.0 10 ------- null}
h -t 0.705887999999999 -s 2 -d 1 -p ack -e 40 -c 1 -i 20 -a 1 -x {2.0 0.0 -1 ------- null}
r -t 0.708095999999999 -s 1 -d 2 -p tcp -e 552 -c 1 -i 16 -a 1 -x {0.0 2.0 11 ------- null}
r -t 0.710303999999999 -s 1 -d 2 -p tcp -e 552 -c 1 -i 17 -a 1 -x {0.0 2.0 12 ------- null}
+ -t 0.710303999999999 -s 2 -d 1 -p ack -e 40 -c 1 -i 21 -a 1 -x {2.0 0.0 12 ------- null}
- -t 0.710303999999999 -s 2 -d 1 -p ack -e 40 -c 1 -i 21 -a 1 -x {2.0 0.0 12 ------- null}
h -t 0.710303999999999 -s 2 -d 1 -p ack -e 40 -c 1 -i 21 -a 1 -x {2.0 0.0 -1 ------- null}
r -t 0.712511999999999 -s 1 -d 2 -p tcp -e 552 -c 1 -i 18 -a 1 -x {0.0 2.0 13 ------- null}
r -t 0.714719999999999 -s 1 -d 2 -p tcp -e 552 -c 1 -i 19 -a 1 -x {0.0 2.0 14 ------- null}
+ -t 0.714719999999999 -s 2 -d 1 -p ack -e 40 -c 1 -i 22 -a 1 -x {2.0 0.0 14 ------- null}
- -t 0.714719999999999 -s 2 -d 1 -p ack -e 40 -c 1 -i 22 -a 1 -x {2.0 0.0 14 ------- null}
h -t 0.714719999999999 -s 2 -d 1 -p ack -e 40 -c 1 -i 22 -a 1 -x {2.0 0.0 -1 ------- null}
r -t 0.716047999999999 -s 2 -d 1 -p ack -e 40 -c 1 -i 20 -a 1 -x {2.0 0.0 10 ------- null}
+ -t 0.716047999999999 -s 1 -d 0 -p ack -e 40 -c 1 -i 20 -a 1 -x {2.0 0.0 10 ------- null}
- -t 0.716047999999999 -s 1 -d 0 -p ack -e 40 -c 1 -i 20 -a 1 -x {2.0 0.0 10 ------- null}
h -t 0.716047999999999 -s 1 -d 0 -p ack -e 40 -c 1 -i 20 -a 1 -x {2.0 0.0 -1 ------- null}
r -t 0.720463999999999 -s 2 -d 1 -p ack -e 40 -c 1 -i 21 -a 1 -x {2.0 0.0 12 ------- null}
+ -t 0.720463999999999 -s 1 -d 0 -p ack -e 40 -c 1 -i 21 -a 1 -x {2.0 0.0 12 ------- null}
- -t 0.720463999999999 -s 1 -d 0 -p ack -e 40 -c 1 -i 21 -a 1 -x {2.0 0.0 12 ------- null}
h -t 0.720463999999999 -s 1 -d 0 -p ack -e 40 -c 1 -i 21 -a 1 -x {2.0 0.0 -1 ------- null}
r -t 0.724879999999999 -s 2 -d 1 -p ack -e 40 -c 1 -i 22 -a 1 -x {2.0 0.0 14 ------- null}
+ -t 0.724879999999999 -s 1 -d 0 -p ack -e 40 -c 1 -i 22 -a 1 -x {2.0 0.0 14 ------- null}
- -t 0.724879999999999 -s 1 -d 0 -p ack -e 40 -c 1 -i 22 -a 1 -x {2.0 0.0 14 ------- null}
h -t 0.724879999999999 -s 1 -d 0 -p ack -e 40 -c 1 -i 22 -a 1 -x {2.0 0.0 -1 ------- null}
r -t 0.726207999999999 -s 1 -d 0 -p ack -e 40 -c 1 -i 20 -a 1 -x {2.0 0.0 10 ------- null}
+ -t 0.726207999999999 -s 0 -d 1 -p tcp -e 552 -c 1 -i 23 -a 1 -x {0.0 2.0 15 ------- null}
- -t 0.726207999999999 -s 0 -d 1 -p tcp -e 552 -c 1 -i 23 -a 1 -x {0.0 2.0 15 ------- null}
h -t 0.726207999999999 -s 0 -d 1 -p tcp -e 552 -c 1 -i 23 -a 1 -x {0.0 2.0 -1 ------- null}
+ -t 0.726207999999999 -s 0 -d 1 -p tcp -e 552 -c 1 -i 24 -a 1 -x {0.0 2.0 16 ------- null}
+ -t 0.726207999999999 -s 0 -d 1 -p tcp -e 552 -c 1 -i 25 -a 1 -x {0.0 2.0 17 ------- null}
- -t 0.728415999999999 -s 0 -d 1 -p tcp -e 552 -c 1 -i 24 -a 1 -x {0.0 2.0 16 ------- null}
h -t 0.728415999999999 -s 0 -d 1 -p tcp -e 552 -c 1 -i 24 -a 1 -x {0.0 2.0 -1 ------- null}
r -t 0.730623999999999 -s 1 -d 0 -p ack -e 40 -c 1 -i 21 -a 1 -x {2.0 0.0 12 ------- null}
+ -t 0.730623999999999 -s 0 -d 1 -p tcp -e 552 -c 1 -i 26 -a 1 -x {0.0 2.0 18 ------- null}
+ -t 0.730623999999999 -s 0 -d 1 -p tcp -e 552 -c 1 -i 27 -a 1 -x {0.0 2.0 19 ------- null}
+ -t 0.730623999999999 -s 0 -d 1 -p tcp -e 552 -c 1 -i 28 -a 1 -x {0.0 2.0 20 ------- null}
- -t 0.730623999999999 -s 0 -d 1 -p tcp -e 552 -c 1 -i 25 -a 1 -x {0.0 2.0 17 ------- null}
h -t 0.730623999999999 -s 0 -d 1 -p tcp -e 552 -c 1 -i 25 -a 1 -x {0.0 2.0 -1 ------- null}
- -t 0.732831999999999 -s 0 -d 1 -p tcp -e 552 -c 1 -i 26 -a 1 -x {0.0 2.0 18 ------- null}
h -t 0.732831999999999 -s 0 -d 1 -p tcp -e 552 -c 1 -i 26 -a 1 -x {0.0 2.0 -1 ------- null}
r -t 0.735039999999999 -s 1 -d 0 -p ack -e 40 -c 1 -i 22 -a 1 -x {2.0 0.0 14 ------- null}
+ -t 0.735039999999999 -s 0 -d 1 -p tcp -e 552 -c 1 -i 29 -a 1 -x {0.0 2.0 21 ------- null}
+ -t 0.735039999999999 -s 0 -d 1 -p tcp -e 552 -c 1 -i 30 -a 1 -x {0.0 2.0 22 ------- null}
+ -t 0.735039999999999 -s 0 -d 1 -p tcp -e 552 -c 1 -i 31 -a 1 -x {0.0 2.0 23 ------- null}
- -t 0.735039999999999 -s 0 -d 1 -p tcp -e 552 -c 1 -i 27 -a 1 -x {0.0 2.0 19 ------- null}
h -t 0.735039999999999 -s 0 -d 1 -p tcp -e 552 -c 1 -i 27 -a 1 -x {0.0 2.0 -1 ------- null}
- -t 0.737247999999999 -s 0 -d 1 -p tcp -e 552 -c 1 -i 28 -a 1 -x {0.0 2.0 20 ------- null}
h -t 0.737247999999999 -s 0 -d 1 -p tcp -e 552 -c 1 -i 28 -a 1 -x {0.0 2.0 -1 ------- null}
r -t 0.738415999999999 -s 0 -d 1 -p tcp -e 552 -c 1 -i 23 -a 1 -x {0.0 2.0 15 ------- null}
+ -t 0.738415999999999 -s 1 -d 2 -p tcp -e 552 -c 1 -i 23 -a 1 -x {0.0 2.0 15 ------- null}
- -t 0.738415999999999 -s 1 -d 2 -p tcp -e 552 -c 1 -i 23 -a 1 -x {0.0 2.0 15 ------- null}
h -t 0.738415999999999 -s 1 -d 2 -p tcp -e 552 -c 1 -i 23 -a 1 -x {0.0 2.0 -1 ------- null}
- -t 0.739455999999999 -s 0 -d 1 -p tcp -e 552 -c 1 -i 29 -a 1 -x {0.0 2.0 21 ------- null}
h -t 0.739455999999999 -s 0 -d 1 -p tcp -e 552 -c 1 -i 29 -a 1 -x {0.0 2.0 -1 ------- null}
r -t 0.740623999999999 -s 0 -d 1 -p tcp -e 552 -c 1 -i 24 -a 1 -x {0.0 2.0 16 ------- null}
+ -t 0.740623999999999 -s 1 -d 2 -p tcp -e 552 -c 1 -i 24 -a 1 -x {0.0 2.0 16 ------- null}
- -t 0.740623999999999 -s 1 -d 2 -p tcp -e 552 -c 1 -i 24 -a 1 -x {0.0 2.0 16 ------- null}
h -t 0.740623999999999 -s 1 -d 2 -p tcp -e 552 -c 1 -i 24 -a 1 -x {0.0 2.0 -1 ------- null}
- -t 0.741663999999999 -s 0 -d 1 -p tcp -e 552 -c 1 -i 30 -a 1 -x {0.0 2.0 22 ------- null}
h -t 0.741663999999999 -s 0 -d 1 -p tcp -e 552 -c 1 -i 30 -a 1 -x {0.0 2.0 -1 ------- null}
r -t 0.742831999999999 -s 0 -d 1 -p tcp -e 552 -c 1 -i 25 -a 1 -x {0.0 2.0 17 ------- null}
+ -t 0.742831999999999 -s 1 -d 2 -p tcp -e 552 -c 1 -i 25 -a 1 -x {0.0 2.0 17 ------- null}
- -t 0.742831999999999 -s 1 -d 2 -p tcp -e 552 -c 1 -i 25 -a 1 -x {0.0 2.0 17 ------- null}
h -t 0.742831999999999 -s 1 -d 2 -p tcp -e 552 -c 1 -i 25 -a 1 -x {0.0 2.0 -1 ------- null}
- -t 0.743871999999999 -s 0 -d 1 -p tcp -e 552 -c 1 -i 31 -a 1 -x {0.0 2.0 23 ------- null}
h -t 0.743871999999999 -s 0 -d 1 -p tcp -e 552 -c 1 -i 31 -a 1 -x {0.0 2.0 -1 ------- null}
r -t 0.745039999999999 -s 0 -d 1 -p tcp -e 552 -c 1 -i 26 -a 1 -x {0.0 2.0 18 ------- null}
+ -t 0.745039999999999 -s 1 -d 2 -p tcp -e 552 -c 1 -i 26 -a 1 -x {0.0 2.0 18 ------- null}
- -t 0.745039999999999 -s 1 -d 2 -p tcp -e 552 -c 1 -i 26 -a 1 -x {0.0 2.0 18 ------- null}
h -t 0.745039999999999 -s 1 -d 2 -p tcp -e 552 -c 1 -i 26 -a 1 -x {0.0 2.0 -1 ------- null}
r -t 0.747247999999999 -s 0 -d 1 -p tcp -e 552 -c 1 -i 27 -a 1 -x {0.0 2.0 19 ------- null}
+ -t 0.747247999999999 -s 1 -d 2 -p tcp -e 552 -c 1 -i 27 -a 1 -x {0.0 2.0 19 ------- null}
- -t 0.747247999999999 -s 1 -d 2 -p tcp -e 552 -c 1 -i 27 -a 1 -x {0.0 2.0 19 ------- null}
h -t 0.747247999999999 -s 1 -d 2 -p tcp -e 552 -c 1 -i 27 -a 1 -x {0.0 2.0 -1 ------- null}
r -t 0.749455999999999 -s 0 -d 1 -p tcp -e 552 -c 1 -i 28 -a 1 -x {0.0 2.0 20 ------- null}
+ -t 0.749455999999999 -s 1 -d 2 -p tcp -e 552 -c 1 -i 28 -a 1 -x {0.0 2.0 20 ------- null}
- -t 0.749455999999999 -s 1 -d 2 -p tcp -e 552 -c 1 -i 28 -a 1 -x {0.0 2.0 20 ------- null}
h -t 0.749455999999999 -s 1 -d 2 -p tcp -e 552 -c 1 -i 28 -a 1 -x {0.0 2.0 -1 ------- null}
r -t 0.750623999999999 -s 1 -d 2 -p tcp -e 552 -c 1 -i 23 -a 1 -x {0.0 2.0 15 ------- null}
r -t 0.751663999999999 -s 0 -d 1 -p tcp -e 552 -c 1 -i 29 -a 1 -x {0.0 2.0 21 ------- null}
+ -t 0.751663999999999 -s 1 -d 2 -p tcp -e 552 -c 1 -i 29 -a 1 -x {0.0 2.0 21 ------- null}
- -t 0.751663999999999 -s 1 -d 2 -p tcp -e 552 -c 1 -i 29 -a 1 -x {0.0 2.0 21 ------- null}
h -t 0.751663999999999 -s 1 -d 2 -p tcp -e 552 -c 1 -i 29 -a 1 -x {0.0 2.0 -1 ------- null}
r -t 0.752831999999999 -s 1 -d 2 -p tcp -e 552 -c 1 -i 24 -a 1 -x {0.0 2.0 16 ------- null}
+ -t 0.752831999999999 -s 2 -d 1 -p ack -e 40 -c 1 -i 32 -a 1 -x {2.0 0.0 16 ------- null}
- -t 0.752831999999999 -s 2 -d 1 -p ack -e 40 -c 1 -i 32 -a 1 -x {2.0 0.0 16 ------- null}
h -t 0.752831999999999 -s 2 -d 1 -p ack -e 40 -c 1 -i 32 -a 1 -x {2.0 0.0 -1 ------- null}
r -t 0.753871999999999 -s 0 -d 1 -p tcp -e 552 -c 1 -i 30 -a 1 -x {0.0 2.0 22 ------- null}
+ -t 0.753871999999999 -s 1 -d 2 -p tcp -e 552 -c 1 -i 30 -a 1 -x {0.0 2.0 22 ------- null}
- -t 0.753871999999999 -s 1 -d 2 -p tcp -e 552 -c 1 -i 30 -a 1 -x {0.0 2.0 22 ------- null}
h -t 0.753871999999999 -s 1 -d 2 -p tcp -e 552 -c 1 -i 30 -a 1 -x {0.0 2.0 -1 ------- null}
r -t 0.755039999999999 -s 1 -d 2 -p tcp -e 552 -c 1 -i 25 -a 1 -x {0.0 2.0 17 ------- null}
r -t 0.756079999999999 -s 0 -d 1 -p tcp -e 552 -c 1 -i 31 -a 1 -x {0.0 2.0 23 ------- null}
+ -t 0.756079999999999 -s 1 -d 2 -p tcp -e 552 -c 1 -i 31 -a 1 -x {0.0 2.0 23 ------- null}
- -t 0.756079999999999 -s 1 -d 2 -p tcp -e 552 -c 1 -i 31 -a 1 -x {0.0 2.0 23 ------- null}
h -t 0.756079999999999 -s 1 -d 2 -p tcp -e 552 -c 1 -i 31 -a 1 -x {0.0 2.0 -1 ------- null}
r -t 0.757247999999999 -s 1 -d 2 -p tcp -e 552 -c 1 -i 26 -a 1 -x {0.0 2.0 18 ------- null}
+ -t 0.757247999999999 -s 2 -d 1 -p ack -e 40 -c 1 -i 33 -a 1 -x {2.0 0.0 18 ------- null}
- -t 0.757247999999999 -s 2 -d 1 -p ack -e 40 -c 1 -i 33 -a 1 -x {2.0 0.0 18 ------- null}
h -t 0.757247999999999 -s 2 -d 1 -p ack -e 40 -c 1 -i 33 -a 1 -x {2.0 0.0 -1 ------- null}
r -t 0.759455999999999 -s 1 -d 2 -p tcp -e 552 -c 1 -i 27 -a 1 -x {0.0 2.0 19 ------- null}
r -t 0.761663999999999 -s 1 -d 2 -p tcp -e 552 -c 1 -i 28 -a 1 -x {0.0 2.0 20 ------- null}
+ -t 0.761663999999999 -s 2 -d 1 -p ack -e 40 -c 1 -i 34 -a 1 -x {2.0 0.0 20 ------- null}
- -t 0.761663999999999 -s 2 -d 1 -p ack -e 40 -c 1 -i 34 -a 1 -x {2.0 0.0 20 ------- null}
h -t 0.761663999999999 -s 2 -d 1 -p ack -e 40 -c 1 -i 34 -a 1 -x {2.0 0.0 -1 ------- null}
r -t 0.762991999999999 -s 2 -d 1 -p ack -e 40 -c 1 -i 32 -a 1 -x {2.0 0.0 16 ------- null}
+ -t 0.762991999999999 -s 1 -d 0 -p ack -e 40 -c 1 -i 32 -a 1 -x {2.0 0.0 16 ------- null}
- -t 0.762991999999999 -s 1 -d 0 -p ack -e 40 -c 1 -i 32 -a 1 -x {2.0 0.0 16 ------- null}
h -t 0.762991999999999 -s 1 -d 0 -p ack -e 40 -c 1 -i 32 -a 1 -x {2.0 0.0 -1 ------- null}
r -t 0.763871999999999 -s 1 -d 2 -p tcp -e 552 -c 1 -i 29 -a 1 -x {0.0 2.0 21 ------- null}
r -t 0.766079999999999 -s 1 -d 2 -p tcp -e 552 -c 1 -i 30 -a 1 -x {0.0 2.0 22 ------- null}
+ -t 0.766079999999999 -s 2 -d 1 -p ack -e 40 -c 1 -i 35 -a 1 -x {2.0 0.0 22 ------- null}
- -t 0.766079999999999 -s 2 -d 1 -p ack -e 40 -c 1 -i 35 -a 1 -x {2.0 0.0 22 ------- null}
h -t 0.766079999999999 -s 2 -d 1 -p ack -e 40 -c 1 -i 35 -a 1 -x {2.0 0.0 -1 ------- null}
r -t 0.767407999999999 -s 2 -d 1 -p ack -e 40 -c 1 -i 33 -a 1 -x {2.0 0.0 18 ------- null}
+ -t 0.767407999999999 -s 1 -d 0 -p ack -e 40 -c 1 -i 33 -a 1 -x {2.0 0.0 18 ------- null}
- -t 0.767407999999999 -s 1 -d 0 -p ack -e 40 -c 1 -i 33 -a 1 -x {2.0 0.0 18 ------- null}
h -t 0.767407999999999 -s 1 -d 0 -p ack -e 40 -c 1 -i 33 -a 1 -x {2.0 0.0 -1 ------- null}
r -t 0.768287999999999 -s 1 -d 2 -p tcp -e 552 -c 1 -i 31 -a 1 -x {0.0 2.0 23 ------- null}
r -t 0.771823999999999 -s 2 -d 1 -p ack -e 40 -c 1 -i 34 -a 1 -x {2.0 0.0 20 ------- null}
+ -t 0.771823999999999 -s 1 -d 0 -p ack -e 40 -c 1 -i 34 -a 1 -x {2.0 0.0 20 ------- null}
- -t 0.771823999999999 -s 1 -d 0 -p ack -e 40 -c 1 -i 34 -a 1 -x {2.0 0.0 20 ------- null}
h -t 0.771823999999999 -s 1 -d 0 -p ack -e 40 -c 1 -i 34 -a 1 -x {2.0 0.0 -1 ------- null}
r -t 0.773151999999999 -s 1 -d 0 -p ack -e 40 -c 1 -i 32 -a 1 -x {2.0 0.0 16 ------- null}
+ -t 0.773151999999999 -s 0 -d 1 -p tcp -e 552 -c 1 -i 36 -a 1 -x {0.0 2.0 24 ------- null}
- -t 0.773151999999999 -s 0 -d 1 -p tcp -e 552 -c 1 -i 36 -a 1 -x {0.0 2.0 24 ------- null}
h -t 0.773151999999999 -s 0 -d 1 -p tcp -e 552 -c 1 -i 36 -a 1 -x {0.0 2.0 -1 ------- null}
+ -t 0.773151999999999 -s 0 -d 1 -p tcp -e 552 -c 1 -i 37 -a 1 -x {0.0 2.0 25 ------- null}
+ -t 0.773151999999999 -s 0 -d 1 -p tcp -e 552 -c 1 -i 38 -a 1 -x {0.0 2.0 26 ------- null}
- -t 0.775359999999999 -s 0 -d 1 -p tcp -e 552 -c 1 -i 37 -a 1 -x {0.0 2.0 25 ------- null}
h -t 0.775359999999999 -s 0 -d 1 -p tcp -e 552 -c 1 -i 37 -a 1 -x {0.0 2.0 -1 ------- null}
r -t 0.776239999999999 -s 2 -d 1 -p ack -e 40 -c 1 -i 35 -a 1 -x {2.0 0.0 22 ------- null}
+ -t 0.776239999999999 -s 1 -d 0 -p ack -e 40 -c 1 -i 35 -a 1 -x {2.0 0.0 22 ------- null}
- -t 0.776239999999999 -s 1 -d 0 -p ack -e 40 -c 1 -i 35 -a 1 -x {2.0 0.0 22 ------- null}
h -t 0.776239999999999 -s 1 -d 0 -p ack -e 40 -c 1 -i 35 -a 1 -x {2.0 0.0 -1 ------- null}
r -t 0.777567999999999 -s 1 -d 0 -p ack -e 40 -c 1 -i 33 -a 1 -x {2.0 0.0 18 ------- null}
+ -t 0.777567999999999 -s 0 -d 1 -p tcp -e 552 -c 1 -i 39 -a 1 -x {0.0 2.0 27 ------- null}
+ -t 0.777567999999999 -s 0 -d 1 -p tcp -e 552 -c 1 -i 40 -a 1 -x {0.0 2.0 28 ------- null}
+ -t 0.777567999999999 -s 0 -d 1 -p tcp -e 552 -c 1 -i 41 -a 1 -x {0.0 2.0 29 ------- null}
- -t 0.777567999999999 -s 0 -d 1 -p tcp -e 552 -c 1 -i 38 -a 1 -x {0.0 2.0 26 ------- null}
h -t 0.777567999999999 -s 0 -d 1 -p tcp -e 552 -c 1 -i 38 -a 1 -x {0.0 2.0 -1 ------- null}
- -t 0.779775999999999 -s 0 -d 1 -p tcp -e 552 -c 1 -i 39 -a 1 -x {0.0 2.0 27 ------- null}
h -t 0.779775999999999 -s 0 -d 1 -p tcp -e 552 -c 1 -i 39 -a 1 -x {0.0 2.0 -1 ------- null}
r -t 0.781983999999999 -s 1 -d 0 -p ack -e 40 -c 1 -i 34 -a 1 -x {2.0 0.0 20 ------- null}
+ -t 0.781983999999999 -s 0 -d 1 -p tcp -e 552 -c 1 -i 42 -a 1 -x {0.0 2.0 30 ------- null}
+ -t 0.781983999999999 -s 0 -d 1 -p tcp -e 552 -c 1 -i 43 -a 1 -x {0.0 2.0 31 ------- null}
+ -t 0.781983999999999 -s 0 -d 1 -p tcp -e 552 -c 1 -i 44 -a 1 -x {0.0 2.0 32 ------- null}
- -t 0.781983999999999 -s 0 -d 1 -p tcp -e 552 -c 1 -i 40 -a 1 -x {0.0 2.0 28 ------- null}
h -t 0.781983999999999 -s 0 -d 1 -p tcp -e 552 -c 1 -i 40 -a 1 -x {0.0 2.0 -1 ------- null}
- -t 0.784191999999999 -s 0 -d 1 -p tcp -e 552 -c 1 -i 41 -a 1 -x {0.0 2.0 29 ------- null}
h -t 0.784191999999999 -s 0 -d 1 -p tcp -e 552 -c 1 -i 41 -a 1 -x {0.0 2.0 -1 ------- null}
r -t 0.785359999999999 -s 0 -d 1 -p tcp -e 552 -c 1 -i 36 -a 1 -x {0.0 2.0 24 ------- null}
+ -t 0.785359999999999 -s 1 -d 2 -p tcp -e 552 -c 1 -i 36 -a 1 -x {0.0 2.0 24 ------- null}
- -t 0.785359999999999 -s 1 -d 2 -p tcp -e 552 -c 1 -i 36 -a 1 -x {0.0 2.0 24 ------- null}
h -t 0.785359999999999 -s 1 -d 2 -p tcp -e 552 -c 1 -i 36 -a 1 -x {0.0 2.0 -1 ------- null}
r -t 0.786399999999999 -s 1 -d 0 -p ack -e 40 -c 1 -i 35 -a 1 -x {2.0 0.0 22 ------- null}
+ -t 0.786399999999999 -s 0 -d 1 -p tcp -e 552 -c 1 -i 45 -a 1 -x {0.0 2.0 33 ------- null}
+ -t 0.786399999999999 -s 0 -d 1 -p tcp -e 552 -c 1 -i 46 -a 1 -x {0.0 2.0 34 ------- null}
+ -t 0.786399999999999 -s 0 -d 1 -p tcp -e 552 -c 1 -i 47 -a 1 -x {0.0 2.0 35 ------- null}
- -t 0.786399999999999 -s 0 -d 1 -p tcp -e 552 -c 1 -i 42 -a 1 -x {0.0 2.0 30 ------- null}
h -t 0.786399999999999 -s 0 -d 1 -p tcp -e 552 -c 1 -i 42 -a 1 -x {0.0 2.0 -1 ------- null}
r -t 0.787567999999999 -s 0 -d 1 -p tcp -e 552 -c 1 -i 37 -a 1 -x {0.0 2.0 25 ------- null}
+ -t 0.787567999999999 -s 1 -d 2 -p tcp -e 552 -c 1 -i 37 -a 1 -x {0.0 2.0 25 ------- null}
- -t 0.787567999999999 -s 1 -d 2 -p tcp -e 552 -c 1 -i 37 -a 1 -x {0.0 2.0 25 ------- null}
h -t 0.787567999999999 -s 1 -d 2 -p tcp -e 552 -c 1 -i 37 -a 1 -x {0.0 2.0 -1 ------- null}
- -t 0.788607999999999 -s 0 -d 1 -p tcp -e 552 -c 1 -i 43 -a 1 -x {0.0 2.0 31 ------- null}
h -t 0.788607999999999 -s 0 -d 1 -p tcp -e 552 -c 1 -i 43 -a 1 -x {0.0 2.0 -1 ------- null}
r -t 0.789775999999999 -s 0 -d 1 -p tcp -e 552 -c 1 -i 38 -a 1 -x {0.0 2.0 26 ------- null}
+ -t 0.789775999999999 -s 1 -d 2 -p tcp -e 552 -c 1 -i 38 -a 1 -x {0.0 2.0 26 ------- null}
- -t 0.789775999999999 -s 1 -d 2 -p tcp -e 552 -c 1 -i 38 -a 1 -x {0.0 2.0 26 ------- null}
h -t 0.789775999999999 -s 1 -d 2 -p tcp -e 552 -c 1 -i 38 -a 1 -x {0.0 2.0 -1 ------- null}
- -t 0.790815999999999 -s 0 -d 1 -p tcp -e 552 -c 1 -i 44 -a 1 -x {0.0 2.0 32 ------- null}
h -t 0.790815999999999 -s 0 -d 1 -p tcp -e 552 -c 1 -i 44 -a 1 -x {0.0 2.0 -1 ------- null}
r -t 0.791983999999999 -s 0 -d 1 -p tcp -e 552 -c 1 -i 39 -a 1 -x {0.0 2.0 27 ------- null}
+ -t 0.791983999999999 -s 1 -d 2 -p tcp -e 552 -c 1 -i 39 -a 1 -x {0.0 2.0 27 ------- null}
- -t 0.791983999999999 -s 1 -d 2 -p tcp -e 552 -c 1 -i 39 -a 1 -x {0.0 2.0 27 ------- null}
h -t 0.791983999999999 -s 1 -d 2 -p tcp -e 552 -c 1 -i 39 -a 1 -x {0.0 2.0 -1 ------- null}
- -t 0.793023999999999 -s 0 -d 1 -p tcp -e 552 -c 1 -i 45 -a 1 -x {0.0 2.0 33 ------- null}