+ 0.5 0 1 tcp 40 ------- 1 0.0 2.0 0 0
- 0.5 0 1 tcp 40 ------- 1 0.0 2.0 0 0
r 0.51016 0 1 tcp 40 ------- 1 0.0 2.0 0 0
+ 0.51016 1 2 tcp 40 ------- 1 0.0 2.0 0 0
- 0.51016 1 2 tcp 40 ------- 1 0.0 2.0 0 0
r 0.52032 1 2 tcp 40 ------- 1 0.0 2.0 0 0
+ 0.52032 2 1 ack 40 ------- 1 2.0 0.0 0 1
- 0.52032 2 1 ack 40 ------- 1 2.0 0.0 0 1
r 0.53048 2 1 ack 40 ------- 1 2.0 0.0 0 1
+ 0.53048 1 0 ack 40 ------- 1 2.0 0.0 0 1
- 0.53048 1 0 ack 40 ------- 1 2.0 0.0 0 1
r 0.54064 1 0 ack 40 ------- 1 2.0 0.0 0 1
+ 0.54064 0 1 tcp 552 ------- 1 0.0 2.0 1 2
- 0.54064 0 1 tcp 552 ------- 1 0.0 2.0 1 2
+ 0.54064 0 1 tcp 552 ------- 1 0.0 2.0 2 3
- 0.542848 0 1 tcp 552 ------- 1 0.0 2.0 2 3
r 0.552848 0 1 tcp 552 ------- 1 0.0 2.0 1 2
+ 0.552848 1 2 tcp 552 ------- 1 0.0 2.0 1 2
- 0.552848 1 2 tcp 552 ------- 1 0.0 2.0 1 2
r 0.555056 0 1 tcp 552 ------- 1 0.0 2.0 2 3
+ 0.555056 1 2 tcp 552 ------- 1 0.0 2.0 2 3
- 0.555056 1 2 tcp 552 ------- 1 0.0 2.0 2 3
r 0.565056 1 2 tcp 552 ------- 1 0.0 2.0 1 2
r 0.567264 1 2 tcp 552 ------- 1 0.0 2.0 2 3
+ 0.567264 2 1 ack 40 ------- 1 2.0 0.0 2 4
- 0.567264 2 1 ack 40 ------- 1 2.0 0.0 2 4
r 0.577424 2 1 ack 40 ------- 1 2.0 0.0 2 4
+ 0.577424 1 0 ack 40 ------- 1 2.0 0.0 2 4
- 0.577424 1 0 ack 40 ------- 1 2.0 0.0 2 4
r 0.587584 1 0 ack 40 ------- 1 2.0 0.0 2 4
+ 0.587584 0 1 tcp 552 ------- 1 0.0 2.0 3 5
- 0.587584 0 1 tcp 552 ------- 1 0.0 2.0 3 5
+ 0.587584 0 1 tcp 552 ------- 1 0.0 2.0 4 6
+ 0.587584 0 1 tcp 552 ------- 1 0.0 2.0 5 7
- 0.589792 0 1 tcp 552 ------- 1 0.0 2.0 4 6
- 0.592 0 1 tcp 552 ------- 1 0.0 2.0 5 7
r 0.599792 0 1 tcp 552 ------- 1 0.0 2.0 3 5
+ 0.599792 1 2 tcp 552 ------- 1 0.0 2.0 3 5
- 0.599792 1 2 tcp 552 ------- 1 0.0 2.0 3 5
r 0.602 0 1 tcp 552 ------- 1 0.0 2.0 4 6
+ 0.602 1 2 tcp 552 ------- 1 0.0 2.0 4 6
- 0.602 1 2 tcp 552 ------- 1 0.0 2.0 4 6
r 0.604208 0 1 tcp 552 ------- 1 0.0 2.0 5 7
+ 0.604208 1 2 tcp 552 ------- 1 0.0 2.0 5 7
- 0.604208 1 2 tcp 552 ------- 1 0.0 2.0 5 7
r 0.612 1 2 tcp 552 ------- 1 0.0 2.0 3 5
r 0.614208 1 2 tcp 552 ------- 1 0.0 2.0 4 6
+ 0.614208 2 1 ack 40 ------- 1 2.0 0.0 4 8
- 0.614208 2 1 ack 40 ------- 1 2.0 0.0 4 8
r 0.616416 1 2 tcp 552 ------- 1 0.0 2.0 5 7
r 0.624368 2 1 ack 40 ------- 1 2.0 0.0 4 8
+ 0.624368 1 0 ack 40 ------- 1 2.0 0.0 4 8
- 0.624368 1 0 ack 40 ------- 1 2.0 0.0 4 8
r 0.634528 1 0 ack 40 ------- 1 2.0 0.0 4 8
+ 0.634528 0 1 tcp 552 ------- 1 0.0 2.0 6 9
- 0.634528 0 1 tcp 552 ------- 1 0.0 2.0 6 9
+ 0.634528 0 1 tcp 552 ------- 1 0.0 2.0 7 10
+ 0.634528 0 1 tcp 552 ------- 1 0.0 2.0 8 11
- 0.636736 0 1 tcp 552 ------- 1 0.0 2.0 7 10
- 0.638944 0 1 tcp 552 ------- 1 0.0 2.0 8 11
r 0.646736 0 1 tcp 552 ------- 1 0.0 2.0 6 9
+ 0.646736 1 2 tcp 552 ------- 1 0.0 2.0 6 9
- 0.646736 1 2 tcp 552 ------- 1 0.0 2.0 6 9
r 0.648944 0 1 tcp 552 ------- 1 0.0 2.0 7 10
+ 0.648944 1 2 tcp 552 ------- 1 0.0 2.0 7 10
- 0.648944 1 2 tcp 552 ------- 1 0.0 2.0 7 10
r 0.651152 0 1 tcp 552 ------- 1 0.0 2.0 8 11
+ 0.651152 1 2 tcp 552 ------- 1 0.0 2.0 8 11
- 0.651152 1 2 tcp 552 ------- 1 0.0 2.0 8 11
r 0.658944 1 2 tcp 552 ------- 1 0.0 2.0 6 9
+ 0.658944 2 1 ack 40 ------- 1 2.0 0.0 6 12
- 0.658944 2 1 ack 40 ------- 1 2.0 0.0 6 12
r 0.661152 1 2 tcp 552 ------- 1 0.0 2.0 7 10
r 0.66336 1 2 tcp 552 ------- 1 0.0 2.0 8 11
+ 0.66336 2 1 ack 40 ------- 1 2.0 0.0 8 13
- 0.66336 2 1 ack 40 ------- 1 2.0 0.0 8 13
r 0.669104 2 1 ack 40 ------- 1 2.0 0.0 6 12
+ 0.669104 1 0 ack 40 ------- 1 2.0 0.0 6 12
- 0.669104 1 0 ack 40 ------- 1 2.0 0.0 6 12
r 0.67352 2 1 ack 40 ------- 1 2.0 0.0 8 13
+ 0.67352 1 0 ack 40 ------- 1 2.0 0.0 8 13
- 0.67352 1 0 ack 40 ------- 1 2.0 0.0 8 13
r 0.679264 1 0 ack 40 ------- 1 2.0 0.0 6 12
+ 0.679264 0 1 tcp 552 ------- 1 0.0 2.0 9 14
- 0.679264 0 1 tcp 552 ------- 1 0.0 2.0 9 14
+ 0.679264 0 1 tcp 552 ------- 1 0.0 2.0 10 15
+ 0.679264 0 1 tcp 552 ------- 1 0.0 2.0 11 16
- 0.681472 0 1 tcp 552 ------- 1 0.0 2.0 10 15
r 0.68368 1 0 ack 40 ------- 1 2.0 0.0 8 13
+ 0.68368 0 1 tcp 552 ------- 1 0.0 2.0 12 17
+ 0.68368 0 1 tcp 552 ------- 1 0.0 2.0 13 18
+ 0.68368 0 1 tcp 552 ------- 1 0.0 2.0 14 19
- 0.68368 0 1 tcp 552 ------- 1 0.0 2.0 11 16
- 0.685888 0 1 tcp 552 ------- 1 0.0 2.0 12 17
- 0.688096 0 1 tcp 552 ------- 1 0.0 2.0 13 18
- 0.690304 0 1 tcp 552 ------- 1 0.0 2.0 14 19
r 0.691472 0 1 tcp 552 ------- 1 0.0 2.0 9 14
+ 0.691472 1 2 tcp 552 ------- 1 0.0 2.0 9 14
- 0.691472 1 2 tcp 552 ------- 1 0.0 2.0 9 14
r 0.69368 0 1 tcp 552 ------- 1 0.0 2.0 10 15
+ 0.69368 1 2 tcp 552 ------- 1 0.0 2.0 10 15
- 0.69368 1 2 tcp 552 ------- 1 0.0 2.0 10 15
r 0.695888 0 1 tcp 552 ------- 1 0.0 2.0 11 16
+ 0.695888 1 2 tcp 552 ------- 1 0.0 2.0 11 16
- 0.695888 1 2 tcp 552 ------- 1 0.0 2.0 11 16
r 0.698096 0 1 tcp 552 ------- 1 0.0 2.0 12 17
+ 0.698096 1 2 tcp 552 ------- 1 0.0 2.0 12 17
- 0.698096 1 2 tcp 552 ------- 1 0.0 2.0 12 17
r 0.700304 0 1 tcp 552 ------- 1 0.0 2.0 13 18
+ 0.700304 1 2 tcp 552 ------- 1 0.0 2.0 13 18
- 0.700304 1 2 tcp 552 ------- 1 0.0 2.0 13 18
r 0.702512 0 1 tcp 552 ------- 1 0.0 2.0 14 19
+ 0.702512 1 2 tcp 552 ------- 1 0.0 2.0 14 19
- 0.702512 1 2 tcp 552 ------- 1 0.0 2.0 14 19
r 0.70368 1 2 tcp 552 ------- 1 0.0 2.0 9 14
r 0.705888 1 2 tcp 552 ------- 1 0.0 2.0 10 15
+ 0.705888 2 1 ack 40 ------- 1 2.0 0.0 10 20
- 0.705888 2 1 ack 40 ------- 1 2.0 0.0 10 20
r 0.708096 1 2 tcp 552 ------- 1 0.0 2.0 11 16
r 0.710304 1 2 tcp 552 ------- 1 0.0 2.0 12 17
+ 0.710304 2 1 ack 40 ------- 1 2.0 0.0 12 21
- 0.710304 2 1 ack 40 ------- 1 2.0 0.0 12 21
r 0.712512 1 2 tcp 552 ------- 1 0.0 2.0 13 18
r 0.71472 1 2 tcp 552 ------- 1 0.0 2.0 14 19
+ 0.71472 2 1 ack 40 ------- 1 2.0 0.0 14 22
- 0.71472 2 1 ack 40 ------- 1 2.0 0.0 14 22
r 0.716048 2 1 ack 40 ------- 1 2.0 0.0 10 20
+ 0.716048 1 0 ack 40 ------- 1 2.0 0.0 10 20
- 0.716048 1 0 ack 40 ------- 1 2.0 0.0 10 20
r 0.720464 2 1 ack 40 ------- 1 2.0 0.0 12 21
+ 0.720464 1 0 ack 40 ------- 1 2.0 0.0 12 21
- 0.720464 1 0 ack 40 ------- 1 2.0 0.0 12 21
r 0.72488 2 1 ack 40 ------- 1 2.0 0.0 14 22
+ 0.72488 1 0 ack 40 ------- 1 2.0 0.0 14 22
- 0.72488 1 0 ack 40 ------- 1 2.0 0.0 14 22
r 0.726208 1 0 ack 40 ------- 1 2.0 0.0 10 20
+ 0.726208 0 1 tcp 552 ------- 1 0.0 2.0 15 23
- 0.726208 0 1 tcp 552 ------- 1 0.0 2.0 15 23
+ 0.726208 0 1 tcp 552 ------- 1 0.0 2.0 16 24
+ 0.726208 0 1 tcp 552 ------- 1 0.0 2.0 17 25
- 0.728416 0 1 tcp 552 ------- 1 0.0 2.0 16 24
r 0.730624 1 0 ack 40 ------- 1 2.0 0.0 12 21
+ 0.730624 0 1 tcp 552 ------- 1 0.0 2.0 18 26
+ 0.730624 0 1 tcp 552 ------- 1 0.0 2.0 19 27
+ 0.730624 0 1 tcp 552 ------- 1 0.0 2.0 20 28
- 0.730624 0 1 tcp 552 ------- 1 0.0 2.0 17 25
- 0.732832 0 1 tcp 552 ------- 1 0.0 2.0 18 26
r 0.73504 1 0 ack 40 ------- 1 2.0 0.0 14 22
+ 0.73504 0 1 tcp 552 ------- 1 0.0 2.0 21 29
+ 0.73504 0 1 tcp 552 ------- 1 0.0 2.0 22 30
+ 0.73504 0 1 tcp 552 ------- 1 0.0 2.0 23 31
- 0.73504 0 1 tcp 552 ------- 1 0.0 2.0 19 27
- 0.737248 0 1 tcp 552 ------- 1 0.0 2.0 20 28
r 0.738416 0 1 tcp 552 ------- 1 0.0 2.0 15 23
+ 0.738416 1 2 tcp 552 ------- 1 0.0 2.0 15 23
- 0.738416 1 2 tcp 552 ------- 1 0.0 2.0 15 23
- 0.739456 0 1 tcp 552 ------- 1 0.0 2.0 21 29
r 0.740624 0 1 tcp 552 ------- 1 0.0 2.0 16 24
+ 0.740624 1 2 tcp 552 ------- 1 0.0 2.0 16 24
- 0.740624 1 2 tcp 552 ------- 1 0.0 2.0 16 24
- 0.741664 0 1 tcp 552 ------- 1 0.0 2.0 22 30
r 0.742832 0 1 tcp 552 ------- 1 0.0 2.0 17 25
+ 0.742832 1 2 tcp 552 ------- 1 0.0 2.0 17 25
- 0.742832 1 2 tcp 552 ------- 1 0.0 2.0 17 25
- 0.743872 0 1 tcp 552 ------- 1 0.0 2.0 23 31
r 0.74504 0 1 tcp 552 ------- 1 0.0 2.0 18 26
+ 0.74504 1 2 tcp 552 ------- 1 0.0 2.0 18 26
- 0.74504 1 2 tcp 552 ------- 1 0.0 2.0 18 26
r 0.747248 0 1 tcp 552 ------- 1 0.0 2.0 19 27
+ 0.747248 1 2 tcp 552 ------- 1 0.0 2.0 19 27
- 0.747248 1 2 tcp 552 ------- 1 0.0 2.0 19 27
r 0.749456 0 1 tcp 552 ------- 1 0.0 2.0 20 28
+ 0.749456 1 2 tcp 552 ------- 1 0.0 2.0 20 28
- 0.749456 1 2 tcp 552 ------- 1 0.0 2.0 20 28
r 0.750624 1 2 tcp 552 ------- 1 0.0 2.0 15 23
r 0.751664 0 1 tcp 552 ------- 1 0.0 2.0 21 29
+ 0.751664 1 2 tcp 552 ------- 1 0.0 2.0 21 29
- 0.751664 1 2 tcp 552 ------- 1 0.0 2.0 21 29
r 0.752832 1 2 tcp 552 ------- 1 0.0 2.0 16 24
+ 0.752832 2 1 ack 40 ------- 1 2.0 0.0 16 32
- 0.752832 2 1 ack 40 ------- 1 2.0 0.0 16 32
r 0.753872 0 1 tcp 552 ------- 1 0.0 2.0 22 30
+ 0.753872 1 2 tcp 552 ------- 1 0.0 2.0 22 30
- 0.753872 1 2 tcp 552 ------- 1 0.0 2.0 22 30
r 0.75504 1 2 tcp 552 ------- 1 0.0 2.0 17 25
r 0.75608 0 1 tcp 552 ------- 1 0.0 2.0 23 31
+ 0.75608 1 2 tcp 552 ------- 1 0.0 2.0 23 31
- 0.75608 1 2 tcp 552 ------- 1 0.0 2.0 23 31
r 0.757248 1 2 tcp 552 ------- 1 0.0 2.0 18 26
+ 0.757248 2 1 ack 40 ------- 1 2.0 0.0 18 33
- 0.757248 2 1 ack 40 ------- 1 2.0 0.0 18 33
r 0.759456 1 2 tcp 552 ------- 1 0.0 2.0 19 27
r 0.761664 1 2 tcp 552 ------- 1 0.0 2.0 20 28
+ 0.761664 2 1 ack 40 ------- 1 2.0 0.0 20 34
- 0.761664 2 1 ack 40 ------- 1 2.0 0.0 20 34
r 0.762992 2 1 ack 40 ------- 1 2.0 0.0 16 32
+ 0.762992 1 0 ack 40 ------- 1 2.0 0.0 16 32
- 0.762992 1 0 ack 40 ------- 1 2.0 0.0 16 32
r 0.763872 1 2 tcp 552 ------- 1 0.0 2.0 21 29
r 0.76608 1 2 tcp 552 ------- 1 0.0 2.0 22 30
+ 0.76608 2 1 ack 40 ------- 1 2.0 0.0 22 35
- 0.76608 2 1 ack 40 ------- 1 2.0 0.0 22 35
r 0.767408 2 1 ack 40 ------- 1 2.0 0.0 18 33
+ 0.767408 1 0 ack 40 ------- 1 2.0 0.0 18 33
- 0.767408 1 0 ack 40 ------- 1 2.0 0.0 18 33
r 0.768288 1 2 tcp 552 ------- 1 0.0 2.0 23 31
r 0.771824 2 1 ack 40 ------- 1 2.0 0.0 20 34
+ 0.771824 1 0 ack 40 ------- 1 2.0 0.0 20 34
- 0.771824 1 0 ack 40 ------- 1 2.0 0.0 20 34
r 0.773152 1 0 ack 40 ------- 1 2.0 0.0 16 32
+ 0.773152 0 1 tcp 552 ------- 1 0.0 2.0 24 36
- 0.773152 0 1 tcp 552 ------- 1 0.0 2.0 24 36
+ 0.773152 0 1 tcp 552 ------- 1 0.0 2.0 25 37
+ 0.773152 0 1 tcp 552 ------- 1 0.0 2.0 26 38
- 0.77536 0 1 tcp 552 ------- 1 0.0 2.0 25 37
r 0.77624 2 1 ack 40 ------- 1 2.0 0.0 22 35
+ 0.77624 1 0 ack 40 ------- 1 2.0 0.0 22 35
- 0.77624 1 0 ack 40 ------- 1 2.0 0.0 22 35
r 0.777568 1 0 ack 40 ------- 1 2.0 0.0 18 33
+ 0.777568 0 1 tcp 552 ------- 1 0.0 2.0 27 39
+ 0.777568 0 1 tcp 552 ------- 1 0.0 2.0 28 40
+ 0.777568 0 1 tcp 552 ------- 1 0.0 2.0 29 41
- 0.777568 0 1 tcp 552 ------- 1 0.0 2.0 26 38
- 0.779776 0 1 tcp 552 ------- 1 0.0 2.0 27 39
r 0.781984 1 0 ack 40 ------- 1 2.0 0.0 20 34
+ 0.781984 0 1 tcp 552 ------- 1 0.0 2.0 30 42
+ 0.781984 0 1 tcp 552 ------- 1 0.0 2.0 31 43
+ 0.781984 0 1 tcp 552 ------- 1 0.0 2.0 32 44
- 0.781984 0 1 tcp 552 ------- 1 0.0 2.0 28 40
- 0.784192 0 1 tcp 552 ------- 1 0.0 2.0 29 41
r 0.78536 0 1 tcp 552 ------- 1 0.0 2.0 24 36
+ 0.78536 1 2 tcp 552 ------- 1 0.0 2.0 24 36
- 0.78536 1 2 tcp 552 ------- 1 0.0 2.0 24 36
r 0.7864 1 0 ack 40 ------- 1 2.0 0.0 22 35
+ 0.7864 0 1 tcp 552 ------- 1 0.0 2.0 33 45
+ 0.7864 0 1 tcp 552 ------- 1 0.0 2.0 34 46
+ 0.7864 0 1 tcp 552 ------- 1 0.0 2.0 35 47
- 0.7864 0 1 tcp 552 ------- 1 0.0 2.0 30 42
r 0.787568 0 1 tcp 552 ------- 1 0.0 2.0 25 37
+ 0.787568 1 2 tcp 552 ------- 1 0.0 2.0 25 37
- 0.787568 1 2 tcp 552 ------- 1 0.0 2.0 25 37
- 0.788608 0 1 tcp 552 ------- 1 0.0 2.0 31 43
r 0.789776 0 1 tcp 552 ------- 1 0.0 2.0 26 38
+ 0.789776 1 2 tcp 552 ------- 1 0.0 2.0 26 38
- 0.789776 1 2 tcp 552 ------- 1 0.0 2.0 26 38
- 0.790816 0 1 tcp 552 ------- 1 0.0 2.0 32 44
r 0.791984 0 1 tcp 552 ------- 1 0.0 2.0 27 39
+ 0.791984 1 2 tcp 552 ------- 1 0.0 2.0 27 39
- 0.791984 1 2 tcp 552 ------- 1 0.0 2.0 27 39
- 0.793024 0 1 tcp 552 ------- 1 0.0 2.0 33 45
r 0.794192 0 1 tcp 552 ------- 1 0.0 2.0 28 40
+ 0.794192 1 2 tcp 552 ------- 1 0.0 2.0 28 40
- 0.794192 1 2 tcp 552 ------- 1 0.0 2.0 28 40
- 0.795232 0 1 tcp 552 ------- 1 0.0 2.0 34 46
r 0.7964 0 1 tcp 552 ------- 1 0.0 2.0 29 41
+ 0.7964 1 2 tcp 552 ------- 1 0.0 2.0 29 41
- 0.7964 1 2 tcp 552 ------- 1 0.0 2.0 29 41
- 0.79744 0 1 tcp 552 ------- 1 0.0 2.0 35 47
r 0.797568 1 2 tcp 552 ------- 1 0.0 2.0 24 36
+ 0.797568 2 1 ack 40 ------- 1 2.0 0.0 24 48
- 0.797568 2 1 ack 40 ------- 1 2.0 0.0 24 48
r 0.798608 0 1 tcp 552 ------- 1 0.0 2.0 30 42
+ 0.798608 1 2 tcp 552 ------- 1 0.0 2.0 30 42
- 0.798608 1 2 tcp 552 ------- 1 0.0 2.0 30 42
r 0.799776 1 2 tcp 552 ------- 1 0.0 2.0 25 37
r 0.800816 0 1 tcp 552 ------- 1 0.0 2.0 31 43
+ 0.800816 1 2 tcp 552 ------- 1 0.0 2.0 31 43
- 0.800816 1 2 tcp 552 ------- 1 0.0 2.0 31 43
r 0.801984 1 2 tcp 552 ------- 1 0.0 2.0 26 38
+ 0.801984 2 1 ack 40 ------- 1 2.0 0.0 26 49
- 0.801984 2 1 ack 40 ------- 1 2.0 0.0 26 49
r 0.803024 0 1 tcp 552 ------- 1 0.0 2.0 32 44
+ 0.803024 1 2 tcp 552 ------- 1 0.0 2.0 32 44
- 0.803024 1 2 tcp 552 ------- 1 0.0 2.0 32 44
r 0.804192 1 2 tcp 552 ------- 1 0.0 2.0 27 39
r 0.805232 0 1 tcp 552 ------- 1 0.0 2.0 33 45
+ 0.805232 1 2 tcp 552 ------- 1 0.0 2.0 33 45
- 0.805232 1 2 tcp 552 ------- 1 0.0 2.0 33 45
r 0.8064 1 2 tcp 552 ------- 1 0.0 2.0 28 40
+ 0.8064 2 1 ack 40 ------- 1 2.0 0.0 28 50
- 0.8064 2 1 ack 40 ------- 1 2.0 0.0 28 50
r 0.80744 0 1 tcp 552 ------- 1 0.0 2.0 34 46
+ 0.80744 1 2 tcp 552 ------- 1 0.0 2.0 34 46
- 0.80744 1 2 tcp 552 ------- 1 0.0 2.0 34 46
r 0.807728 2 1 ack 40 ------- 1 2.0 0.0 24 48
+ 0.807728 1 0 ack 40 ------- 1 2.0 0.0 24 48
- 0.807728 1 0 ack 40 ------- 1 2.0 0.0 24 48
r 0.808608 1 2 tcp 552 ------- 1 0.0 2.0 29 41
r 0.809648 0 1 tcp 552 ------- 1 0.0 2.0 35 47
+ 0.809648 1 2 tcp 552 ------- 1 0.0 2.0 35 47
- 0.809648 1 2 tcp 552 ------- 1 0.0 2.0 35 47
r 0.810816 1 2 tcp 552 ------- 1 0.0 2.0 30 42
+ 0.810816 2 1 ack 40 ------- 1 2.0 0.0 30 51
- 0.810816 2 1 ack 40 ------- 1 2.0 0.0 30 51
r 0.812144 2 1 ack 40 ------- 1 2.0 0.0 26 49
+ 0.812144 1 0 ack 40 ------- 1 2.0 0.0 26 49
- 0.812144 1 0 ack 40 ------- 1 2.0 0.0 26 49
r 0.813024 1 2 tcp 552 ------- 1 0.0 2.0 31 43
r 0.815232 1 2 tcp 552 ------- 1 0.0 2.0 32 44
+ 0.815232 2 1 ack 40 ------- 1 2.0 0.0 32 52
- 0.815232 2 1 ack 40 ------- 1 2.0 0.0 32 52
r 0.81656 2 1 ack 40 ------- 1 2.0 0.0 28 50
+ 0.81656 1 0 ack 40 ------- 1 2.0 0.0 28 50
- 0.81656 1 0 ack 40 ------- 1 2.0 0.0 28 50
r 0.81744 1 2 tcp 552 ------- 1 0.0 2.0 33 45
r 0.817888 1 0 ack 40 ------- 1 2.0 0.0 24 48
+ 0.817888 0 1 tcp 552 ------- 1 0.0 2.0 36 53
- 0.817888 0 1 tcp 552 ------- 1 0.0 2.0 36 53
+ 0.817888 0 1 tcp 552 ------- 1 0.0 2.0 37 54
+ 0.817888 0 1 tcp 552 ------- 1 0.0 2.0 38 55
r 0.819648 1 2 tcp 552 ------- 1 0.0 2.0 34 46
+ 0.819648 2 1 ack 40 ------- 1 2.0 0.0 34 56
- 0.819648 2 1 ack 40 ------- 1 2.0 0.0 34 56
- 0.820096 0 1 tcp 552 ------- 1 0.0 2.0 37 54
r 0.820976 2 1 ack 40 ------- 1 2.0 0.0 30 51
+ 0.820976 1 0 ack 40 ------- 1 2.0 0.0 30 51
- 0.820976 1 0 ack 40 ------- 1 2.0 0.0 30 51
r 0.821856 1 2 tcp 552 ------- 1 0.0 2.0 35 47
r 0.822304 1 0 ack 40 ------- 1 2.0 0.0 26 49
+ 0.822304 0 1 tcp 552 ------- 1 0.0 2.0 39 57
+ 0.822304 0 1 tcp 552 ------- 1 0.0 2.0 40 58
+ 0.822304 0 1 tcp 552 ------- 1 0.0 2.0 41 59
- 0.822304 0 1 tcp 552 ------- 1 0.0 2.0 38 55
- 0.824512 0 1 tcp 552 ------- 1 0.0 2.0 39 57
r 0.825392 2 1 ack 40 ------- 1 2.0 0.0 32 52
+ 0.825392 1 0 ack 40 ------- 1 2.0 0.0 32 52
- 0.825392 1 0 ack 40 ------- 1 2.0 0.0 32 52
r 0.82672 1 0 ack 40 ------- 1 2.0 0.0 28 50
+ 0.82672 0 1 tcp 552 ------- 1 0.0 2.0 42 60
+ 0.82672 0 1 tcp 552 ------- 1 0.0 2.0 43 61
+ 0.82672 0 1 tcp 552 ------- 1 0.0 2.0 44 62
- 0.82672 0 1 tcp 552 ------- 1 0.0 2.0 40 58
- 0.828928 0 1 tcp 552 ------- 1 0.0 2.0 41 59
r 0.829808 2 1 ack 40 ------- 1 2.0 0.0 34 56
+ 0.829808 1 0 ack 40 ------- 1 2.0 0.0 34 56
- 0.829808 1 0 ack 40 ------- 1 2.0 0.0 34 56
r 0.830096 0 1 tcp 552 ------- 1 0.0 2.0 36 53
+ 0.830096 1 2 tcp 552 ------- 1 0.0 2.0 36 53
- 0.830096 1 2 tcp 552 ------- 1 0.0 2.0 36 53
r 0.831136 1 0 ack 40 ------- 1 2.0 0.0 30 51
+ 0.831136 0 1 tcp 552 ------- 1 0.0 2.0 45 63
+ 0.831136 0 1 tcp 552 ------- 1 0.0 2.0 46 64
+ 0.831136 0 1 tcp 552 ------- 1 0.0 2.0 47 65
- 0.831136 0 1 tcp 552 ------- 1 0.0 2.0 42 60
r 0.832304 0 1 tcp 552 ------- 1 0.0 2.0 37 54
+ 0.832304 1 2 tcp 552 ------- 1 0.0 2.0 37 54
- 0.832304 1 2 tcp 552 ------- 1 0.0 2.0 37 54
- 0.833344 0 1 tcp 552 ------- 1 0.0 2.0 43 61
r 0.834512 0 1 tcp 552 ------- 1 0.0 2.0 38 55
+ 0.834512 1 2 tcp 552 ------- 1 0.0 2.0 38 55
- 0.834512 1 2 tcp 552 ------- 1 0.0 2.0 38 55
r 0.835552 1 0 ack 40 ------- 1 2.0 0.0 32 52
+ 0.835552 0 1 tcp 552 ------- 1 0.0 2.0 48 66
+ 0.835552 0 1 tcp 552 ------- 1 0.0 2.0 49 67
+ 0.835552 0 1 tcp 552 ------- 1 0.0 2.0 50 68
- 0.835552 0 1 tcp 552 ------- 1 0.0 2.0 44 62
r 0.83672 0 1 tcp 552 ------- 1 0.0 2.0 39 57
+ 0.83672 1 2 tcp 552 ------- 1 0.0 2.0 39 57
- 0.83672 1 2 tcp 552 ------- 1 0.0 2.0 39 57
- 0.83776 0 1 tcp 552 ------- 1 0.0 2.0 45 63
r 0.838928 0 1 tcp 552 ------- 1 0.0 2.0 40 58
+ 0.838928 1 2 tcp 552 ------- 1 0.0 2.0 40 58
- 0.838928 1 2 tcp 552 ------- 1 0.0 2.0 40 58
r 0.839968 1 0 ack 40 ------- 1 2.0 0.0 34 56
+ 0.839968 0 1 tcp 552 ------- 1 0.0 2.0 51 69
+ 0.839968 0 1 tcp 552 ------- 1 0.0 2.0 52 70
+ 0.839968 0 1 tcp 552 ------- 1 0.0 2.0 53 71
- 0.839968 0 1 tcp 552 ------- 1 0.0 2.0 46 64
r 0.841136 0 1 tcp 552 ------- 1 0.0 2.0 41 59
+ 0.841136 1 2 tcp 552 ------- 1 0.0 2.0 41 59
- 0.841136 1 2 tcp 552 ------- 1 0.0 2.0 41 59
- 0.842176 0 1 tcp 552 ------- 1 0.0 2.0 47 65
r 0.842304 1 2 tcp 552 ------- 1 0.0 2.0 36 53
+ 0.842304 2 1 ack 40 ------- 1 2.0 0.0 36 72
- 0.842304 2 1 ack 40 ------- 1 2.0 0.0 36 72
r 0.843344 0 1 tcp 552 ------- 1 0.0 2.0 42 60
+ 0.843344 1 2 tcp 552 ------- 1 0.0 2.0 42 60
- 0.843344 1 2 tcp 552 ------- 1 0.0 2.0 42 60
- 0.844384 0 1 tcp 552 ------- 1 0.0 2.0 48 66
r 0.844512 1 2 tcp 552 ------- 1 0.0 2.0 37 54
r 0.845552 0 1 tcp 552 ------- 1 0.0 2.0 43 61
+ 0.845552 1 2 tcp 552 ------- 1 0.0 2.0 43 61
- 0.845552 1 2 tcp 552 ------- 1 0.0 2.0 43 61
- 0.846592 0 1 tcp 552 ------- 1 0.0 2.0 49 67
r 0.84672 1 2 tcp 552 ------- 1 0.0 2.0 38 55
+ 0.84672 2 1 ack 40 ------- 1 2.0 0.0 38 73
- 0.84672 2 1 ack 40 ------- 1 2.0 0.0 38 73
r 0.84776 0 1 tcp 552 ------- 1 0.0 2.0 44 62
+ 0.84776 1 2 tcp 552 ------- 1 0.0 2.0 44 62
- 0.84776 1 2 tcp 552 ------- 1 0.0 2.0 44 62
- 0.8488 0 1 tcp 552 ------- 1 0.0 2.0 50 68
r 0.848928 1 2 tcp 552 ------- 1 0.0 2.0 39 57
r 0.849968 0 1 tcp 552 ------- 1 0.0 2.0 45 63
+ 0.849968 1 2 tcp 552 ------- 1 0.0 2.0 45 63
- 0.849968 1 2 tcp 552 ------- 1 0.0 2.0 45 63
- 0.851008 0 1 tcp 552 ------- 1 0.0 2.0 51 69
r 0.851136 1 2 tcp 552 ------- 1 0.0 2.0 40 58
+ 0.851136 2 1 ack 40 ------- 1 2.0 0.0 40 74
- 0.851136 2 1 ack 40 ------- 1 2.0 0.0 40 74
r 0.852176 0 1 tcp 552 ------- 1 0.0 2.0 46 64
+ 0.852176 1 2 tcp 552 ------- 1 0.0 2.0 46 64
- 0.852176 1 2 tcp 552 ------- 1 0.0 2.0 46 64
r 0.852464 2 1 ack 40 ------- 1 2.0 0.0 36 72
+ 0.852464 1 0 ack 40 ------- 1 2.0 0.0 36 72
- 0.852464 1 0 ack 40 ------- 1 2.0 0.0 36 72
- 0.853216 0 1 tcp 552 ------- 1 0.0 2.0 52 70
r 0.853344 1 2 tcp 552 ------- 1 0.0 2.0 41 59
r 0.854384 0 1 tcp 552 ------- 1 0.0 2.0 47 65
+ 0.854384 1 2 tcp 552 ------- 1 0.0 2.0 47 65
- 0.854384 1 2 tcp 552 ------- 1 0.0 2.0 47 65
- 0.855424 0 1 tcp 552 ------- 1 0.0 2.0 53 71
r 0.855552 1 2 tcp 552 ------- 1 0.0 2.0 42 60
+ 0.855552 2 1 ack 40 ------- 1 2.0 0.0 42 75
- 0.855552 2 1 ack 40 ------- 1 2.0 0.0 42 75
r 0.856592 0 1 tcp 552 ------- 1 0.0 2.0 48 66
+ 0.856592 1 2 tcp 552 ------- 1 0.0 2.0 48 66
- 0.856592 1 2 tcp 552 ------- 1 0.0 2.0 48 66
r 0.85688 2 1 ack 40 ------- 1 2.0 0.0 38 73
+ 0.85688 1 0 ack 40 ------- 1 2.0 0.0 38 73
- 0.85688 1 0 ack 40 ------- 1 2.0 0.0 38 73
r 0.85776 1 2 tcp 552 ------- 1 0.0 2.0 43 61
r 0.8588 0 1 tcp 552 ------- 1 0.0 2.0 49 67
+ 0.8588 1 2 tcp 552 ------- 1 0.0 2.0 49 67
- 0.8588 1 2 tcp 552 ------- 1 0.0 2.0 49 67
r 0.859968 1 2 tcp 552 ------- 1 0.0 2.0 44 62
+ 0.859968 2 1 ack 40 ------- 1 2.0 0.0 44 76
- 0.859968 2 1 ack 40 ------- 1 2.0 0.0 44 76
r 0.861008 0 1 tcp 552 ------- 1 0.0 2.0 50 68
+ 0.861008 1 2 tcp 552 ------- 1 0.0 2.0 50 68
- 0.861008 1 2 tcp 552 ------- 1 0.0 2.0 50 68
r 0.861296 2 1 ack 40 ------- 1 2.0 0.0 40 74
+ 0.861296 1 0 ack 40 ------- 1 2.0 0.0 40 74
- 0.861296 1 0 ack 40 ------- 1 2.0 0.0 40 74
r 0.862176 1 2 tcp 552 ------- 1 0.0 2.0 45 63
r 0.862624 1 0 ack 40 ------- 1 2.0 0.0 36 72
+ 0.862624 0 1 tcp 552 ------- 1 0.0 2.0 54 77
- 0.862624 0 1 tcp 552 ------- 1 0.0 2.0 54 77
+ 0.862624 0 1 tcp 552 ------- 1 0.0 2.0 55 78
+ 0.862624 0 1 tcp 552 ------- 1 0.0 2.0 56 79
r 0.863216 0 1 tcp 552 ------- 1 0.0 2.0 51 69
+ 0.863216 1 2 tcp 552 ------- 1 0.0 2.0 51 69
- 0.863216 1 2 tcp 552 ------- 1 0.0 2.0 51 69
r 0.864384 1 2 tcp 552 ------- 1 0.0 2.0 46 64
+ 0.864384 2 1 ack 40 ------- 1 2.0 0.0 46 80
- 0.864384 2 1 ack 40 ------- 1 2.0 0.0 46 80
- 0.864832 0 1 tcp 552 ------- 1 0.0 2.0 55 78
r 0.865424 0 1 tcp 552 ------- 1 0.0 2.0 52 70
+ 0.865424 1 2 tcp 552 ------- 1 0.0 2.0 52 70
- 0.865424 1 2 tcp 552 ------- 1 0.0 2.0 52 70
r 0.865712 2 1 ack 40 ------- 1 2.0 0.0 42 75
+ 0.865712 1 0 ack 40 ------- 1 2.0 0.0 42 75
- 0.865712 1 0 ack 40 ------- 1 2.0 0.0 42 75
r 0.866592 1 2 tcp 552 ------- 1 0.0 2.0 47 65
r 0.86704 1 0 ack 40 ------- 1 2.0 0.0 38 73
+ 0.86704 0 1 tcp 552 ------- 1 0.0 2.0 57 81
+ 0.86704 0 1 tcp 552 ------- 1 0.0 2.0 58 82
+ 0.86704 0 1 tcp 552 ------- 1 0.0 2.0 59 83
- 0.86704 0 1 tcp 552 ------- 1 0.0 2.0 56 79
r 0.867632 0 1 tcp 552 ------- 1 0.0 2.0 53 71
+ 0.867632 1 2 tcp 552 ------- 1 0.0 2.0 53 71
- 0.867632 1 2 tcp 552 ------- 1 0.0 2.0 53 71
r 0.8688 1 2 tcp 552 ------- 1 0.0 2.0 48 66
+ 0.8688 2 1 ack 40 ------- 1 2.0 0.0 48 84
- 0.8688 2 1 ack 40 ------- 1 2.0 0.0 48 84
- 0.869248 0 1 tcp 552 ------- 1 0.0 2.0 57 81
r 0.870128 2 1 ack 40 ------- 1 2.0 0.0 44 76
+ 0.870128 1 0 ack 40 ------- 1 2.0 0.0 44 76
- 0.870128 1 0 ack 40 ------- 1 2.0 0.0 44 76
r 0.871008 1 2 tcp 552 ------- 1 0.0 2.0 49 67
r 0.871456 1 0 ack 40 ------- 1 2.0 0.0 40 74
+ 0.871456 0 1 tcp 552 ------- 1 0.0 2.0 60 85
+ 0.871456 0 1 tcp 552 ------- 1 0.0 2.0 61 86
+ 0.871456 0 1 tcp 552 ------- 1 0.0 2.0 62 87
- 0.871456 0 1 tcp 552 ------- 1 0.0 2.0 58 82
r 0.873216 1 2 tcp 552 ------- 1 0.0 2.0 50 68
+ 0.873216 2 1 ack 40 ------- 1 2.0 0.0 50 88
- 0.873216 2 1 ack 40 ------- 1 2.0 0.0 50 88
- 0.873664 0 1 tcp 552 ------- 1 0.0 2.0 59 83
r 0.874544 2 1 ack 40 ------- 1 2.0 0.0 46 80
+ 0.874544 1 0 ack 40 ------- 1 2.0 0.0 46 80
- 0.874544 1 0 ack 40 ------- 1 2.0 0.0 46 80
r 0.874832 0 1 tcp 552 ------- 1 0.0 2.0 54 77
+ 0.874832 1 2 tcp 552 ------- 1 0.0 2.0 54 77
- 0.874832 1 2 tcp 552 ------- 1 0.0 2.0 54 77
r 0.875424 1 2 tcp 552 ------- 1 0.0 2.0 51 69
r 0.875872 1 0 ack 40 ------- 1 2.0 0.0 42 75
+ 0.875872 0 1 tcp 552 ------- 1 0.0 2.0 63 89
+ 0.875872 0 1 tcp 552 ------- 1 0.0 2.0 64 90
+ 0.875872 0 1 tcp 552 ------- 1 0.0 2.0 65 91
- 0.875872 0 1 tcp 552 ------- 1 0.0 2.0 60 85
r 0.87704 0 1 tcp 552 ------- 1 0.0 2.0 55 78
+ 0.87704 1 2 tcp 552 ------- 1 0.0 2.0 55 78
- 0.87704 1 2 tcp 552 ------- 1 0.0 2.0 55 78
r 0.877632 1 2 tcp 552 ------- 1 0.0 2.0 52 70
+ 0.877632 2 1 ack 40 ------- 1 2.0 0.0 52 92
- 0.877632 2 1 ack 40 ------- 1 2.0 0.0 52 92
- 0.87808 0 1 tcp 552 ------- 1 0.0 2.0 61 86
r 0.87896 2 1 ack 40 ------- 1 2.0 0.0 48 84
+ 0.87896 1 0 ack 40 ------- 1 2.0 0.0 48 84
- 0.87896 1 0 ack 40 ------- 1 2.0 0.0 48 84
r 0.879248 0 1 tcp 552 ------- 1 0.0 2.0 56 79
+ 0.879248 1 2 tcp 552 ------- 1 0.0 2.0 56 79
- 0.879248 1 2 tcp 552 ------- 1 0.0 2.0 56 79
r 0.87984 1 2 tcp 552 ------- 1 0.0 2.0 53 71
r 0.880288 1 0 ack 40 ------- 1 2.0 0.0 44 76
+ 0.880288 0 1 tcp 552 ------- 1 0.0 2.0 66 93
+ 0.880288 0 1 tcp 552 ------- 1 0.0 2.0 67 94
+ 0.880288 0 1 tcp 552 ------- 1 0.0 2.0 68 95
- 0.880288 0 1 tcp 552 ------- 1 0.0 2.0 62 87
r 0.881456 0 1 tcp 552 ------- 1 0.0 2.0 57 81
+ 0.881456 1 2 tcp 552 ------- 1 0.0 2.0 57 81
- 0.881456 1 2 tcp 552 ------- 1 0.0 2.0 57 81
- 0.882496 0 1 tcp 552 ------- 1 0.0 2.0 63 89
r 0.883376 2 1 ack 40 ------- 1 2.0 0.0 50 88
+ 0.883376 1 0 ack 40 ------- 1 2.0 0.0 50 88
- 0.883376 1 0 ack 40 ------- 1 2.0 0.0 50 88
r 0.883664 0 1 tcp 552 ------- 1 0.0 2.0 58 82
+ 0.883664 1 2 tcp 552 ------- 1 0.0 2.0 58 82
- 0.883664 1 2 tcp 552 ------- 1 0.0 2.0 58 82
r 0.884704 1 0 ack 40 ------- 1 2.0 0.0 46 80
+ 0.884704 0 1 tcp 552 ------- 1 0.0 2.0 69 96
+ 0.884704 0 1 tcp 552 ------- 1 0.0 2.0 70 97
+ 0.884704 0 1 tcp 552 ------- 1 0.0 2.0 71 98
- 0.884704 0 1 tcp 552 ------- 1 0.0 2.0 64 90
r 0.885872 0 1 tcp 552 ------- 1 0.0 2.0 59 83
+ 0.885872 1 2 tcp 552 ------- 1 0.0 2.0 59 83
- 0.885872 1 2 tcp 552 ------- 1 0.0 2.0 59 83
- 0.886912 0 1 tcp 552 ------- 1 0.0 2.0 65 91
r 0.88704 1 2 tcp 552 ------- 1 0.0 2.0 54 77
+ 0.88704 2 1 ack 40 ------- 1 2.0 0.0 54 99
- 0.88704 2 1 ack 40 ------- 1 2.0 0.0 54 99
r 0.887792 2 1 ack 40 ------- 1 2.0 0.0 52 92
+ 0.887792 1 0 ack 40 ------- 1 2.0 0.0 52 92
- 0.887792 1 0 ack 40 ------- 1 2.0 0.0 52 92
r 0.88808 0 1 tcp 552 ------- 1 0.0 2.0 60 85
+ 0.88808 1 2 tcp 552 ------- 1 0.0 2.0 60 85
- 0.88808 1 2 tcp 552 ------- 1 0.0 2.0 60 85
r 0.88912 1 0 ack 40 ------- 1 2.0 0.0 48 84
+ 0.88912 0 1 tcp 552 ------- 1 0.0 2.0 72 100
+ 0.88912 0 1 tcp 552 ------- 1 0.0 2.0 73 101
+ 0.88912 0 1 tcp 552 ------- 1 0.0 2.0 74 102
- 0.88912 0 1 tcp 552 ------- 1 0.0 2.0 66 93
r 0.889248 1 2 tcp 552 ------- 1 0.0 2.0 55 78
r 0.890288 0 1 tcp 552 ------- 1 0.0 2.0 61 86
+ 0.890288 1 2 tcp 552 ------- 1 0.0 2.0 61 86
- 0.890288 1 2 tcp 552 ------- 1 0.0 2.0 61 86
- 0.891328 0 1 tcp 552 ------- 1 0.0 2.0 67 94
r 0.891456 1 2 tcp 552 ------- 1 0.0 2.0 56 79
+ 0.891456 2 1 ack 40 ------- 1 2.0 0.0 56 103
- 0.891456 2 1 ack 40 ------- 1 2.0 0.0 56 103
r 0.892496 0 1 tcp 552 ------- 1 0.0 2.0 62 87
+ 0.892496 1 2 tcp 552 ------- 1 0.0 2.0 62 87
- 0.892496 1 2 tcp 552 ------- 1 0.0 2.0 62 87
r 0.893536 1 0 ack 40 ------- 1 2.0 0.0 50 88
+ 0.893536 0 1 tcp 552 ------- 1 0.0 2.0 75 104
+ 0.893536 0 1 tcp 552 ------- 1 0.0 2.0 76 105
+ 0.893536 0 1 tcp 552 ------- 1 0.0 2.0 77 106
- 0.893536 0 1 tcp 552 ------- 1 0.0 2.0 68 95
r 0.893664 1 2 tcp 552 ------- 1 0.0 2.0 57 81
r 0.894704 0 1 tcp 552 ------- 1 0.0 2.0 63 89
+ 0.894704 1 2 tcp 552 ------- 1 0.0 2.0 63 89
- 0.894704 1 2 tcp 552 ------- 1 0.0 2.0 63 89
- 0.895744 0 1 tcp 552 ------- 1 0.0 2.0 69 96
r 0.895872 1 2 tcp 552 ------- 1 0.0 2.0 58 82
+ 0.895872 2 1 ack 40 ------- 1 2.0 0.0 58 107
- 0.895872 2 1 ack 40 ------- 1 2.0 0.0 58 107
r 0.896912 0 1 tcp 552 ------- 1 0.0 2.0 64 90
+ 0.896912 1 2 tcp 552 ------- 1 0.0 2.0 64 90
- 0.896912 1 2 tcp 552 ------- 1 0.0 2.0 64 90
r 0.8972 2 1 ack 40 ------- 1 2.0 0.0 54 99
+ 0.8972 1 0 ack 40 ------- 1 2.0 0.0 54 99
- 0.8972 1 0 ack 40 ------- 1 2.0 0.0 54 99
r 0.897952 1 0 ack 40 ------- 1 2.0 0.0 52 92
+ 0.897952 0 1 tcp 552 ------- 1 0.0 2.0 78 108
+ 0.897952 0 1 tcp 552 ------- 1 0.0 2.0 79 109
+ 0.897952 0 1 tcp 552 ------- 1 0.0 2.0 80 110
- 0.897952 0 1 tcp 552 ------- 1 0.0 2.0 70 97
r 0.89808 1 2 tcp 552 ------- 1 0.0 2.0 59 83
r 0.89912 0 1 tcp 552 ------- 1 0.0 2.0 65 91
+ 0.89912 1 2 tcp 552 ------- 1 0.0 2.0 65 91
- 0.89912 1 2 tcp 552 ------- 1 0.0 2.0 65 91
- 0.90016 0 1 tcp 552 ------- 1 0.0 2.0 71 98
r 0.900288 1 2 tcp 552 ------- 1 0.0 2.0 60 85
+ 0.900288 2 1 ack 40 ------- 1 2.0 0.0 60 111
- 0.900288 2 1 ack 40 ------- 1 2.0 0.0 60 111
r 0.901328 0 1 tcp 552 ------- 1 0.0 2.0 66 93
+ 0.901328 1 2 tcp 552 ------- 1 0.0 2.0 66 93
- 0.901328 1 2 tcp 552 ------- 1 0.0 2.0 66 93
r 0.901616 2 1 ack 40 ------- 1 2.0 0.0 56 103
+ 0.901616 1 0 ack 40 ------- 1 2.0 0.0 56 103
- 0.901616 1 0 ack 40 ------- 1 2.0 0.0 56 103
- 0.902368 0 1 tcp 552 ------- 1 0.0 2.0 72 100
r 0.902496 1 2 tcp 552 ------- 1 0.0 2.0 61 86
r 0.903536 0 1 tcp 552 ------- 1 0.0 2.0 67 94
+ 0.903536 1 2 tcp 552 ------- 1 0.0 2.0 67 94
- 0.903536 1 2 tcp 552 ------- 1 0.0 2.0 67 94
- 0.904576 0 1 tcp 552 ------- 1 0.0 2.0 73 101
r 0.904704 1 2 tcp 552 ------- 1 0.0 2.0 62 87
+ 0.904704 2 1 ack 40 ------- 1 2.0 0.0 62 112
- 0.904704 2 1 ack 40 ------- 1 2.0 0.0 62 112
r 0.905744 0 1 tcp 552 ------- 1 0.0 2.0 68 95
+ 0.905744 1 2 tcp 552 ------- 1 0.0 2.0 68 95
- 0.905744 1 2 tcp 552 ------- 1 0.0 2.0 68 95
r 0.906032 2 1 ack 40 ------- 1 2.0 0.0 58 107
+ 0.906032 1 0 ack 40 ------- 1 2.0 0.0 58 107
- 0.906032 1 0 ack 40 ------- 1 2.0 0.0 58 107
- 0.906784 0 1 tcp 552 ------- 1 0.0 2.0 74 102
r 0.906912 1 2 tcp 552 ------- 1 0.0 2.0 63 89
r 0.90736 1 0 ack 40 ------- 1 2.0 0.0 54 99
+ 0.90736 0 1 tcp 552 ------- 1 0.0 2.0 81 113
+ 0.90736 0 1 tcp 552 ------- 1 0.0 2.0 82 114
+ 0.90736 0 1 tcp 552 ------- 1 0.0 2.0 83 115
r 0.907952 0 1 tcp 552 ------- 1 0.0 2.0 69 96
+ 0.907952 1 2 tcp 552 ------- 1 0.0 2.0 69 96
- 0.907952 1 2 tcp 552 ------- 1 0.0 2.0 69 96
- 0.908992 0 1 tcp 552 ------- 1 0.0 2.0 75 104
r 0.90912 1 2 tcp 552 ------- 1 0.0 2.0 64 90
+ 0.90912 2 1 ack 40 ------- 1 2.0 0.0 64 116
- 0.90912 2 1 ack 40 ------- 1 2.0 0.0 64 116
r 0.91016 0 1 tcp 552 ------- 1 0.0 2.0 70 97
+ 0.91016 1 2 tcp 552 ------- 1 0.0 2.0 70 97
- 0.91016 1 2 tcp 552 ------- 1 0.0 2.0 70 97
r 0.910448 2 1 ack 40 ------- 1 2.0 0.0 60 111
+ 0.910448 1 0 ack 40 ------- 1 2.0 0.0 60 111
- 0.910448 1 0 ack 40 ------- 1 2.0 0.0 60 111
- 0.9112 0 1 tcp 552 ------- 1 0.0 2.0 76 105
r 0.911328 1 2 tcp 552 ------- 1 0.0 2.0 65 91
r 0.911776 1 0 ack 40 ------- 1 2.0 0.0 56 103
+ 0.911776 0 1 tcp 552 ------- 1 0.0 2.0 84 117
+ 0.911776 0 1 tcp 552 ------- 1 0.0 2.0 85 118
+ 0.911776 0 1 tcp 552 ------- 1 0.0 2.0 86 119
r 0.912368 0 1 tcp 552 ------- 1 0.0 2.0 71 98
+ 0.912368 1 2 tcp 552 ------- 1 0.0 2.0 71 98
- 0.912368 1 2 tcp 552 ------- 1 0.0 2.0 71 98
- 0.913408 0 1 tcp 552 ------- 1 0.0 2.0 77 106
r 0.913536 1 2 tcp 552 ------- 1 0.0 2.0 66 93
+ 0.913536 2 1 ack 40 ------- 1 2.0 0.0 66 120
- 0.913536 2 1 ack 40 ------- 1 2.0 0.0 66 120
r 0.914576 0 1 tcp 552 ------- 1 0.0 2.0 72 100
+ 0.914576 1 2 tcp 552 ------- 1 0.0 2.0 72 100
- 0.914576 1 2 tcp 552 ------- 1 0.0 2.0 72 100
r 0.914864 2 1 ack 40 ------- 1 2.0 0.0 62 112
+ 0.914864 1 0 ack 40 ------- 1 2.0 0.0 62 112
- 0.914864 1 0 ack 40 ------- 1 2.0 0.0 62 112
- 0.915616 0 1 tcp 552 ------- 1 0.0 2.0 78 108
r 0.915744 1 2 tcp 552 ------- 1 0.0 2.0 67 94
r 0.916192 1 0 ack 40 ------- 1 2.0 0.0 58 107
+ 0.916192 0 1 tcp 552 ------- 1 0.0 2.0 87 121